<?xml version="1.0"?>
<VTKFile type="UnstructuredGrid"  version="0.1"  >
<UnstructuredGrid>
<Piece  NumberOfPoints="40301" NumberOfCells="80000">
<Points>
<DataArray  type="Float64"  NumberOfComponents="3"  format="ascii">0 0 0  0.01 0 0  0.02 0 0  0.03 0 0  0.04 0 0  0.05 0 0  0.06 0 0  0.07000000000000001 0 0  0.08 0 0  0.09 0 0  0.1 0 0  0.11 0 0  0.12 0 0  0.13 0 0  0.14 0 0  0.15 0 0  0.16 0 0  0.17 0 0  0.18 0 0  0.19 0 0  0.2 0 0  0.21 0 0  0.22 0 0  0.23 0 0  0.24 0 0  0.25 0 0  0.26 0 0  0.27 0 0  0.28 0 0  0.29 0 0  0.3 0 0  0.31 0 0  0.32 0 0  0.33 0 0  0.34 0 0  0.35 0 0  0.36 0 0  0.37 0 0  0.38 0 0  0.39 0 0  0.4 0 0  0.41 0 0  0.42 0 0  0.43 0 0  0.44 0 0  0.45 0 0  0.46 0 0  0.47 0 0  0.48 0 0  0.49 0 0  0.5 0 0  0.51 0 0  0.52 0 0  0.53 0 0  0.54 0 0  0.55 0 0  0.5600000000000001 0 0  0.57 0 0  0.58 0 0  0.59 0 0  0.6 0 0  0.61 0 0  0.62 0 0  0.63 0 0  0.64 0 0  0.65 0 0  0.66 0 0  0.67 0 0  0.68 0 0  0.6899999999999999 0 0  0.7 0 0  0.71 0 0  0.72 0 0  0.73 0 0  0.74 0 0  0.75 0 0  0.76 0 0  0.77 0 0  0.78 0 0  0.79 0 0  0.8 0 0  0.8100000000000001 0 0  0.82 0 0  0.83 0 0  0.84 0 0  0.85 0 0  0.86 0 0  0.87 0 0  0.88 0 0  0.89 0 0  0.9 0 0  0.91 0 0  0.92 0 0  0.93 0 0  0.9399999999999999 0 0  0.95 0 0  0.96 0 0  0.97 0 0  0.98 0 0  0.99 0 0  1 0 0  0 0.01 0  0.01 0.01 0  0.02 0.01 0  0.03 0.01 0  0.04 0.01 0  0.05 0.01 0  0.06 0.01 0  0.07000000000000001 0.01 0  0.08 0.01 0  0.09 0.01 0  0.1 0.01 0  0.11 0.01 0  0.12 0.01 0  0.13 0.01 0  0.14 0.01 0  0.15 0.01 0  0.16 0.01 0  0.17 0.01 0  0.18 0.01 0  0.19 0.01 0  0.2 0.01 0  0.21 0.01 0  0.22 0.01 0  0.23 0.01 0  0.24 0.01 0  0.25 0.01 0  0.26 0.01 0  0.27 0.01 0  0.28 0.01 0  0.29 0.01 0  0.3 0.01 0  0.31 0.01 0  0.32 0.01 0  0.33 0.01 0  0.34 0.01 0  0.35 0.01 0  0.36 0.01 0  0.37 0.01 0  0.38 0.01 0  0.39 0.01 0  0.4 0.01 0  0.41 0.01 0  0.42 0.01 0  0.43 0.01 0  0.44 0.01 0  0.45 0.01 0  0.46 0.01 0  0.47 0.01 0  0.48 0.01 0  0.49 0.01 0  0.5 0.01 0  0.51 0.01 0  0.52 0.01 0  0.53 0.01 0  0.54 0.01 0  0.55 0.01 0  0.5600000000000001 0.01 0  0.57 0.01 0  0.58 0.01 0  0.59 0.01 0  0.6 0.01 0  0.61 0.01 0  0.62 0.01 0  0.63 0.01 0  0.64 0.01 0  0.65 0.01 0  0.66 0.01 0  0.67 0.01 0  0.68 0.01 0  0.6899999999999999 0.01 0  0.7 0.01 0  0.71 0.01 0  0.72 0.01 0  0.73 0.01 0  0.74 0.01 0  0.75 0.01 0  0.76 0.01 0  0.77 0.01 0  0.78 0.01 0  0.79 0.01 0  0.8 0.01 0  0.8100000000000001 0.01 0  0.82 0.01 0  0.83 0.01 0  0.84 0.01 0  0.85 0.01 0  0.86 0.01 0  0.87 0.01 0  0.88 0.01 0  0.89 0.01 0  0.9 0.01 0  0.91 0.01 0  0.92 0.01 0  0.93 0.01 0  0.9399999999999999 0.01 0  0.95 0.01 0  0.96 0.01 0  0.97 0.01 0  0.98 0.01 0  0.99 0.01 0  1 0.01 0  0 0.02 0  0.01 0.02 0  0.02 0.02 0  0.03 0.02 0  0.04 0.02 0  0.05 0.02 0  0.06 0.02 0  0.07000000000000001 0.02 0  0.08 0.02 0  0.09 0.02 0  0.1 0.02 0  0.11 0.02 0  0.12 0.02 0  0.13 0.02 0  0.14 0.02 0  0.15 0.02 0  0.16 0.02 0  0.17 0.02 0  0.18 0.02 0  0.19 0.02 0  0.2 0.02 0  0.21 0.02 0  0.22 0.02 0  0.23 0.02 0  0.24 0.02 0  0.25 0.02 0  0.26 0.02 0  0.27 0.02 0  0.28 0.02 0  0.29 0.02 0  0.3 0.02 0  0.31 0.02 0  0.32 0.02 0  0.33 0.02 0  0.34 0.02 0  0.35 0.02 0  0.36 0.02 0  0.37 0.02 0  0.38 0.02 0  0.39 0.02 0  0.4 0.02 0  0.41 0.02 0  0.42 0.02 0  0.43 0.02 0  0.44 0.02 0  0.45 0.02 0  0.46 0.02 0  0.47 0.02 0  0.48 0.02 0  0.49 0.02 0  0.5 0.02 0  0.51 0.02 0  0.52 0.02 0  0.53 0.02 0  0.54 0.02 0  0.55 0.02 0  0.5600000000000001 0.02 0  0.57 0.02 0  0.58 0.02 0  0.59 0.02 0  0.6 0.02 0  0.61 0.02 0  0.62 0.02 0  0.63 0.02 0  0.64 0.02 0  0.65 0.02 0  0.66 0.02 0  0.67 0.02 0  0.68 0.02 0  0.6899999999999999 0.02 0  0.7 0.02 0  0.71 0.02 0  0.72 0.02 0  0.73 0.02 0  0.74 0.02 0  0.75 0.02 0  0.76 0.02 0  0.77 0.02 0  0.78 0.02 0  0.79 0.02 0  0.8 0.02 0  0.8100000000000001 0.02 0  0.82 0.02 0  0.83 0.02 0  0.84 0.02 0  0.85 0.02 0  0.86 0.02 0  0.87 0.02 0  0.88 0.02 0  0.89 0.02 0  0.9 0.02 0  0.91 0.02 0  0.92 0.02 0  0.93 0.02 0  0.9399999999999999 0.02 0  0.95 0.02 0  0.96 0.02 0  0.97 0.02 0  0.98 0.02 0  0.99 0.02 0  1 0.02 0  0 0.03 0  0.01 0.03 0  0.02 0.03 0  0.03 0.03 0  0.04 0.03 0  0.05 0.03 0  0.06 0.03 0  0.07000000000000001 0.03 0  0.08 0.03 0  0.09 0.03 0  0.1 0.03 0  0.11 0.03 0  0.12 0.03 0  0.13 0.03 0  0.14 0.03 0  0.15 0.03 0  0.16 0.03 0  0.17 0.03 0  0.18 0.03 0  0.19 0.03 0  0.2 0.03 0  0.21 0.03 0  0.22 0.03 0  0.23 0.03 0  0.24 0.03 0  0.25 0.03 0  0.26 0.03 0  0.27 0.03 0  0.28 0.03 0  0.29 0.03 0  0.3 0.03 0  0.31 0.03 0  0.32 0.03 0  0.33 0.03 0  0.34 0.03 0  0.35 0.03 0  0.36 0.03 0  0.37 0.03 0  0.38 0.03 0  0.39 0.03 0  0.4 0.03 0  0.41 0.03 0  0.42 0.03 0  0.43 0.03 0  0.44 0.03 0  0.45 0.03 0  0.46 0.03 0  0.47 0.03 0  0.48 0.03 0  0.49 0.03 0  0.5 0.03 0  0.51 0.03 0  0.52 0.03 0  0.53 0.03 0  0.54 0.03 0  0.55 0.03 0  0.5600000000000001 0.03 0  0.57 0.03 0  0.58 0.03 0  0.59 0.03 0  0.6 0.03 0  0.61 0.03 0  0.62 0.03 0  0.63 0.03 0  0.64 0.03 0  0.65 0.03 0  0.66 0.03 0  0.67 0.03 0  0.68 0.03 0  0.6899999999999999 0.03 0  0.7 0.03 0  0.71 0.03 0  0.72 0.03 0  0.73 0.03 0  0.74 0.03 0  0.75 0.03 0  0.76 0.03 0  0.77 0.03 0  0.78 0.03 0  0.79 0.03 0  0.8 0.03 0  0.8100000000000001 0.03 0  0.82 0.03 0  0.83 0.03 0  0.84 0.03 0  0.85 0.03 0  0.86 0.03 0  0.87 0.03 0  0.88 0.03 0  0.89 0.03 0  0.9 0.03 0  0.91 0.03 0  0.92 0.03 0  0.93 0.03 0  0.9399999999999999 0.03 0  0.95 0.03 0  0.96 0.03 0  0.97 0.03 0  0.98 0.03 0  0.99 0.03 0  1 0.03 0  0 0.04 0  0.01 0.04 0  0.02 0.04 0  0.03 0.04 0  0.04 0.04 0  0.05 0.04 0  0.06 0.04 0  0.07000000000000001 0.04 0  0.08 0.04 0  0.09 0.04 0  0.1 0.04 0  0.11 0.04 0  0.12 0.04 0  0.13 0.04 0  0.14 0.04 0  0.15 0.04 0  0.16 0.04 0  0.17 0.04 0  0.18 0.04 0  0.19 0.04 0  0.2 0.04 0  0.21 0.04 0  0.22 0.04 0  0.23 0.04 0  0.24 0.04 0  0.25 0.04 0  0.26 0.04 0  0.27 0.04 0  0.28 0.04 0  0.29 0.04 0  0.3 0.04 0  0.31 0.04 0  0.32 0.04 0  0.33 0.04 0  0.34 0.04 0  0.35 0.04 0  0.36 0.04 0  0.37 0.04 0  0.38 0.04 0  0.39 0.04 0  0.4 0.04 0  0.41 0.04 0  0.42 0.04 0  0.43 0.04 0  0.44 0.04 0  0.45 0.04 0  0.46 0.04 0  0.47 0.04 0  0.48 0.04 0  0.49 0.04 0  0.5 0.04 0  0.51 0.04 0  0.52 0.04 0  0.53 0.04 0  0.54 0.04 0  0.55 0.04 0  0.5600000000000001 0.04 0  0.57 0.04 0  0.58 0.04 0  0.59 0.04 0  0.6 0.04 0  0.61 0.04 0  0.62 0.04 0  0.63 0.04 0  0.64 0.04 0  0.65 0.04 0  0.66 0.04 0  0.67 0.04 0  0.68 0.04 0  0.6899999999999999 0.04 0  0.7 0.04 0  0.71 0.04 0  0.72 0.04 0  0.73 0.04 0  0.74 0.04 0  0.75 0.04 0  0.76 0.04 0  0.77 0.04 0  0.78 0.04 0  0.79 0.04 0  0.8 0.04 0  0.8100000000000001 0.04 0  0.82 0.04 0  0.83 0.04 0  0.84 0.04 0  0.85 0.04 0  0.86 0.04 0  0.87 0.04 0  0.88 0.04 0  0.89 0.04 0  0.9 0.04 0  0.91 0.04 0  0.92 0.04 0  0.93 0.04 0  0.9399999999999999 0.04 0  0.95 0.04 0  0.96 0.04 0  0.97 0.04 0  0.98 0.04 0  0.99 0.04 0  1 0.04 0  0 0.05 0  0.01 0.05 0  0.02 0.05 0  0.03 0.05 0  0.04 0.05 0  0.05 0.05 0  0.06 0.05 0  0.07000000000000001 0.05 0  0.08 0.05 0  0.09 0.05 0  0.1 0.05 0  0.11 0.05 0  0.12 0.05 0  0.13 0.05 0  0.14 0.05 0  0.15 0.05 0  0.16 0.05 0  0.17 0.05 0  0.18 0.05 0  0.19 0.05 0  0.2 0.05 0  0.21 0.05 0  0.22 0.05 0  0.23 0.05 0  0.24 0.05 0  0.25 0.05 0  0.26 0.05 0  0.27 0.05 0  0.28 0.05 0  0.29 0.05 0  0.3 0.05 0  0.31 0.05 0  0.32 0.05 0  0.33 0.05 0  0.34 0.05 0  0.35 0.05 0  0.36 0.05 0  0.37 0.05 0  0.38 0.05 0  0.39 0.05 0  0.4 0.05 0  0.41 0.05 0  0.42 0.05 0  0.43 0.05 0  0.44 0.05 0  0.45 0.05 0  0.46 0.05 0  0.47 0.05 0  0.48 0.05 0  0.49 0.05 0  0.5 0.05 0  0.51 0.05 0  0.52 0.05 0  0.53 0.05 0  0.54 0.05 0  0.55 0.05 0  0.5600000000000001 0.05 0  0.57 0.05 0  0.58 0.05 0  0.59 0.05 0  0.6 0.05 0  0.61 0.05 0  0.62 0.05 0  0.63 0.05 0  0.64 0.05 0  0.65 0.05 0  0.66 0.05 0  0.67 0.05 0  0.68 0.05 0  0.6899999999999999 0.05 0  0.7 0.05 0  0.71 0.05 0  0.72 0.05 0  0.73 0.05 0  0.74 0.05 0  0.75 0.05 0  0.76 0.05 0  0.77 0.05 0  0.78 0.05 0  0.79 0.05 0  0.8 0.05 0  0.8100000000000001 0.05 0  0.82 0.05 0  0.83 0.05 0  0.84 0.05 0  0.85 0.05 0  0.86 0.05 0  0.87 0.05 0  0.88 0.05 0  0.89 0.05 0  0.9 0.05 0  0.91 0.05 0  0.92 0.05 0  0.93 0.05 0  0.9399999999999999 0.05 0  0.95 0.05 0  0.96 0.05 0  0.97 0.05 0  0.98 0.05 0  0.99 0.05 0  1 0.05 0  0 0.06 0  0.01 0.06 0  0.02 0.06 0  0.03 0.06 0  0.04 0.06 0  0.05 0.06 0  0.06 0.06 0  0.07000000000000001 0.06 0  0.08 0.06 0  0.09 0.06 0  0.1 0.06 0  0.11 0.06 0  0.12 0.06 0  0.13 0.06 0  0.14 0.06 0  0.15 0.06 0  0.16 0.06 0  0.17 0.06 0  0.18 0.06 0  0.19 0.06 0  0.2 0.06 0  0.21 0.06 0  0.22 0.06 0  0.23 0.06 0  0.24 0.06 0  0.25 0.06 0  0.26 0.06 0  0.27 0.06 0  0.28 0.06 0  0.29 0.06 0  0.3 0.06 0  0.31 0.06 0  0.32 0.06 0  0.33 0.06 0  0.34 0.06 0  0.35 0.06 0  0.36 0.06 0  0.37 0.06 0  0.38 0.06 0  0.39 0.06 0  0.4 0.06 0  0.41 0.06 0  0.42 0.06 0  0.43 0.06 0  0.44 0.06 0  0.45 0.06 0  0.46 0.06 0  0.47 0.06 0  0.48 0.06 0  0.49 0.06 0  0.5 0.06 0  0.51 0.06 0  0.52 0.06 0  0.53 0.06 0  0.54 0.06 0  0.55 0.06 0  0.5600000000000001 0.06 0  0.57 0.06 0  0.58 0.06 0  0.59 0.06 0  0.6 0.06 0  0.61 0.06 0  0.62 0.06 0  0.63 0.06 0  0.64 0.06 0  0.65 0.06 0  0.66 0.06 0  0.67 0.06 0  0.68 0.06 0  0.6899999999999999 0.06 0  0.7 0.06 0  0.71 0.06 0  0.72 0.06 0  0.73 0.06 0  0.74 0.06 0  0.75 0.06 0  0.76 0.06 0  0.77 0.06 0  0.78 0.06 0  0.79 0.06 0  0.8 0.06 0  0.8100000000000001 0.06 0  0.82 0.06 0  0.83 0.06 0  0.84 0.06 0  0.85 0.06 0  0.86 0.06 0  0.87 0.06 0  0.88 0.06 0  0.89 0.06 0  0.9 0.06 0  0.91 0.06 0  0.92 0.06 0  0.93 0.06 0  0.9399999999999999 0.06 0  0.95 0.06 0  0.96 0.06 0  0.97 0.06 0  0.98 0.06 0  0.99 0.06 0  1 0.06 0  0 0.07000000000000001 0  0.01 0.07000000000000001 0  0.02 0.07000000000000001 0  0.03 0.07000000000000001 0  0.04 0.07000000000000001 0  0.05 0.07000000000000001 0  0.06 0.07000000000000001 0  0.07000000000000001 0.07000000000000001 0  0.08 0.07000000000000001 0  0.09 0.07000000000000001 0  0.1 0.07000000000000001 0  0.11 0.07000000000000001 0  0.12 0.07000000000000001 0  0.13 0.07000000000000001 0  0.14 0.07000000000000001 0  0.15 0.07000000000000001 0  0.16 0.07000000000000001 0  0.17 0.0700
[...]
<PointData  Scalars="level"> 
<DataArray  type="Float64"  Name="level"  format="ascii">-1.6001924806560847e-17  -1.1239304507974282e-17  -1.9806149713995155e-17  -1.2446566277075918e-17  -2.6592834520780139e-17  1.1851451482295053e-17  -7.0681752083825806e-17  1.1539336429106872e-16  -1.9824516492566924e-16  4.0109590472714415e-16  -4.8313393436215587e-16  1.0561179510640076e-15  -1.3292088651085841e-15  2.3883013087150887e-15  -3.1108008993515629e-15  5.0085638045136274e-15  -6.7131455691010968e-15  9.9928588794981896e-15  -1.2868987373334809e-14  1.8138090175332050e-14  -2.5642126749610475e-14  2.4753347210072654e-14  -4.8954323352288437e-14  1.8883227514354473e-14  -8.4348206058918768e-14  -2.5494443577540065e-14  -2.4633221026610410e-14  -6.5536320352925487e-14  1.2817923723795513e-13  -1.8969362858789522e-13  3.8977027452567535e-13  -6.2593728536629176e-13  9.0453047077368732e-13  -1.2915905736555044e-12  1.6363872780188616e-12  -2.6901812998160473e-12  2.1682892116232465e-12  -3.0967552244390240e-12  1.9870743187142057e-12  -2.0782184513574792e-12  1.7077009313026249e-12  -1.6900301702882202e-12  1.1663013363999172e-12  -9.6411630449423183e-13  9.2714201049065993e-13  -4.7141532123328097e-13  6.7019219506275406e-13  -4.1390353858830665e-13  4.1653824941884782e-13  -4.5092909617241030e-13  3.3100965554845191e-13  -4.5092909617462163e-13  4.1653824943031950e-13  -4.1390353860111927e-13  6.7019219507741632e-13  -4.7141532125008772e-13  9.2714201050422924e-13  -9.6411630451873645e-13  1.1663013364088134e-12  -1.6900301703069097e-12  1.7077009313107247e-12  -2.0782184513629811e-12  1.9870743187220881e-12  -3.0967552244395507e-12  2.1682892116245907e-12  -2.6901812998194582e-12  1.6363872780190054e-12  -1.2915905736560614e-12  9.0453047077345145e-13  -6.2593728536604679e-13  3.8977027452537748e-13  -1.8969362858775913e-13  1.2817923723736069e-13  -6.5536320352488319e-14  -2.4633221026831481e-14  -2.5494443577184977e-14  -8.4348206059420004e-14  1.8883227514534510e-14  -4.8954323352430141e-14  2.4753347210241963e-14  -2.5642126749737488e-14  1.8138090175438704e-14  -1.2868987373401846e-14  9.9928588795655268e-15  -6.7131455691406826e-15  5.0085638045528937e-15  -3.1108008993758823e-15  2.3883013087368550e-15  -1.3292088651233534e-15  1.0561179510761126e-15  -4.8313393437182109e-16  4.0109590473517535e-16  -1.9824516492705065e-16  1.1539336429669872e-16  -7.0681752086064026e-17  1.1851451485767458e-17  -2.6592834520531854e-17  -1.2446566275603318e-17  -1.9806149714401332e-17  -1.1239304505848316e-17  -1.6001924805684127e-17  -1.1607860198885118e-17  -1.5905394717765835e-17  -3.4505639986655094e-17  -1.0555794948690950e-17  -1.6395125242281039e-17  6.2403273431887566e-18  4.1987708511721641e-17  7.2472998622852706e-17  2.2304476181068279e-16  2.9610337976008058e-16  7.7102893833359052e-16  6.1760863593624698e-16  1.7319702454288512e-15  1.2802666438666069e-15  3.6571103834862208e-15  2.2634394646237572e-15  6.9313993060691857e-15  2.9636807455260913e-15  1.1932423327142314e-14  3.5082074764539092e-16  1.6030971603504383e-14  -9.2353392707567969e-15  1.2201006168127687e-14  -3.6057112679594957e-14  -1.0377631552563193e-14  -7.8017590197370597e-14  -1.0465643334141020e-14  3.8621415651381857e-14  6.9412716727225393e-14  2.7499301230396935e-13  1.8552939107712546e-13  6.0737565633428669e-13  2.3311903933664628e-13  1.1207854858750634e-12  -2.0552743943200772e-13  1.2492780382811422e-12  -5.8552413614773992e-13  1.3034756030552056e-12  -3.9495876914984415e-13  1.2152436577050695e-12  -1.0883849459296662e-13  1.0459647405009010e-12  1.4503402686393573e-14  7.4200501078176607e-13  8.8384071679735798e-14  5.9689526817850938e-13  4.7361854347966615e-14  4.3701127269467520e-13  5.9658203983518805e-15  2.6835653677653917e-13  -2.9747618506020911e-14  2.6835653678198411e-13  5.9658203954576067e-15  4.3701127270434631e-13  4.7361854348227431e-14  5.9689526819005497e-13  8.8384071677973798e-14  7.4200501078492454e-13  1.4503402682117922e-14  1.0459647405012524e-12  -1.0883849459455293e-13  1.2152436577091093e-12  -3.9495876914981466e-13  1.3034756030603157e-12  -5.8552413614673583e-13  1.2492780382809411e-12  -2.0552743943156626e-13  1.1207854858751240e-12  2.3311903933693122e-13  6.0737565633423096e-13  1.8552939107690100e-13  2.7499301230339137e-13  6.9412716726919946e-14  3.8621415651022792e-14  -1.0465643333826309e-14  -7.8017590197714364e-14  -1.0377631552534580e-14  -3.6057112679478420e-14  1.2201006168315790e-14  -9.2353392707514390e-15  1.6030971603604322e-14  3.5082074765903506e-16  1.1932423327217445e-14  2.9636807455492175e-15  6.9313993061179057e-15  2.2634394646417235e-15  3.6571103835147539e-15  1.2802666438797382e-15  1.7319702454460334e-15  6.1760863594184277e-16  7.7102893834078415e-16  2.9610337976253078e-16  2.2304476181762743e-16  7.2472998627106934e-17  4.1987708515087070e-17  6.2403273452028910e-18  -1.6395125238202327e-17  -1.0555794947603912e-17  -3.4505639975510733e-17  -1.5905394716278453e-17  -1.1607860201525238e-17  -1.9732061540679196e-17  -3.6394001232530218e-17  -4.9832830481052627e-18  -6.3830236025535990e-17  -4.8617550185410772e-18  -2.6831375516855424e-17  7.6062445736700684e-17  9.4548405268083206e-17  3.8143789218759839e-16  5.7540605234802253e-16  9.3640515769753457e-16  1.4472465420987442e-15  2.2121622319376519e-15  3.7344639262643741e-15  4.4107939029279071e-15  7.4663137016902668e-15  7.4032989947623371e-15  1.2903877066863191e-14  8.9107404330927111e-15  1.7887480012899314e-14  4.0341728027394387e-15  1.7993606017256921e-14  -1.4294181570092213e-14  5.7109594751917911e-15  -9.6779106504748285e-14  7.1890864661149051e-15  -2.9086165633787772e-14  6.8372211614489781e-14  1.7342481334312972e-13  3.4096584618385156e-13  6.2397252030422133e-13  6.6226674719697743e-13  1.1861142649947534e-12  5.5978094528718330e-13  1.4405141782824351e-12  -1.5292733119936074e-13  1.5064970835155098e-12  -3.4529421668168279e-13  1.5177188465117582e-12  2.4783332715306881e-13  1.3421778666912897e-12  2.9712664583213583e-13  1.1151715041978710e-12  2.7093600520382329e-13  8.4611146404033506e-13  3.3671335582158790e-13  4.8679182835011019e-13  -1.1675889408426858e-13  1.4474748641719112e-13  -9.1407170011695451e-13  -6.6053400251037653e-15  -9.1407170009013515e-13  1.4474748642469512e-13  -1.1675889407327835e-13  4.8679182836515878e-13  3.3671335582618586e-13  8.4611146405271651e-13  2.7093600520721239e-13  1.1151715042036742e-12  2.9712664582855973e-13  1.3421778666956388e-12  2.4783332715291371e-13  1.5177188465141315e-12  -3.4529421667974004e-13  1.5064970835184752e-12  -1.5292733119715870e-13  1.4405141782837825e-12  5.5978094528754115e-13  1.1861142649950309e-12  6.6226674719706952e-13  6.2397252030346948e-13  3.4096584618336809e-13  1.7342481334213654e-13  6.8372211614069274e-14  -2.9086165634240642e-14  7.1890864662017176e-15  -9.6779106504355761e-14  5.7109594753853460e-15  -1.4294181570000301e-14  1.7993606017402109e-14  4.0341728027898817e-15  1.7887480013005350e-14  8.9107404331362941e-15  1.2903877066942733e-14  7.4032989948110319e-15  7.4663137017439251e-15  4.4107939029580573e-15  3.7344639262970361e-15  2.2121622319659041e-15  1.4472465421235037e-15  9.3640515771166109e-16  5.7540605234425335e-16  3.8143789219700102e-16  9.4548405276824228e-17  7.6062445742353957e-17  -2.6831375513042995e-17  -4.8617550142063359e-18  -6.3830236006241389e-17  -4.9832830465679023e-18  -3.6394001244412035e-17  -1.9732061539945534e-17  -1.2686246752398892e-17  -1.0769848617700363e-17  -6.7159871640986818e-17  1.3477468611207910e-17  -1.3562040981707186e-16  -4.6914224895683731e-18  -6.7251184188360038e-17  1.7460494613493459e-16  1.5197451623206659e-16  7.1206902021915062e-16  8.7303477733204228e-16  2.0140952140725601e-15  3.3428098138542273e-15  4.1005103239615750e-15  7.5538165166217544e-15  8.4686536957302968e-15  1.4584540744900258e-14  1.2770857160585848e-14  2.4201568716379515e-14  1.1841036566759553e-14  3.1919116270262610e-14  -5.4720772370455069e-15  2.8858348010272897e-14  -5.2726922441611887e-14  -1.9795880419660432e-16  -2.9930011007743104e-13  2.2046867965941783e-14  2.3805449829475106e-14  2.3541996595529649e-13  4.6537014978002363e-13  7.1828071339923343e-13  1.3758664947604848e-12  1.0005191417188261e-12  2.1081437093014998e-12  3.9450985103375808e-14  2.2966535383124565e-12  -1.3803392460352479e-12  2.2971501956307923e-12  -6.0685680353248922e-13  2.1479248085428188e-12  -1.6379048929419466e-13  1.9054021912930516e-12  4.3392988661883927e-13  1.0963736421301368e-12  -1.9023391043558653e-13  7.8280450240630317e-13  -3.9850585500876492e-13  2.5899182114884188e-13  -7.6047380100503915e-13  -9.0410721910547530e-13  -9.0519978873893521e-13  -9.0410721904735738e-13  -7.6047380099852783e-13  2.5899182117722936e-13  -3.9850585500795046e-13  7.8280450243290664e-13  -1.9023391037466880e-13  1.0963736421537147e-12  4.3392988661162124e-13  1.9054021913000407e-12  -1.6379048929290381e-13  2.1479248085468271e-12  -6.0685680353376068e-13  2.2971501956347085e-12  -1.3803392460317397e-12  2.2966535383157297e-12  3.9450985105758799e-14  2.1081437093022398e-12  1.0005191417189642e-12  1.3758664947602566e-12  7.1828071339845310e-13  4.6537014977845489e-13  2.3541996595444982e-13  2.3805449828941104e-14  2.2046867965848988e-14  -2.9930011007656231e-13  -1.9795880403327856e-16  -5.2726922441605854e-14  2.8858348010539141e-14  -5.4720772369488872e-15  3.1919116270451002e-14  1.1841036566812615e-14  2.4201568716506654e-14  1.2770857160606308e-14  1.4584540745006312e-14  8.4686536957768838e-15  7.5538165166929349e-15  4.1005103239898952e-15  3.3428098138988721e-15  2.0140952141022481e-15  8.7303477736224934e-16  7.1206902023544375e-16  1.5197451623991289e-16  1.7460494614506919e-16  -6.7251184180691077e-17  -4.6914224811555167e-18  -1.3562040978980404e-16  1.3477468610985771e-17  -6.7159871661053590e-17  -1.0769848618963079e-17  -1.2686246753898720e-17  -2.6674291880241304e-17  -1.7082081026656388e-17  -5.6247965266460548e-18  -1.4035448097718957e-16  4.5288855940962410e-17  -2.7926022422067527e-16  8.5631015387889798e-18  -1.4608154191807784e-16  3.7655170892687983e-16  2.4952826571296268e-16  1.5436732442448695e-15  1.8187489522612722e-15  4.1808087567736145e-15  6.3929174335831768e-15  8.8388492401161793e-15  1.4736870966017700e-14  1.7700856502471694e-14  2.8907673532598641e-14  2.4202680150088534e-14  4.6679304430768449e-14  1.6949821601354203e-14  5.7047398307203132e-14  -2.6375956391372177e-14  4.3524784898016987e-14  -1.4241557745810621e-13  2.5295519275753444e-14  -4.8754568433409809e-13  8.1946895744259749e-14  1.5754773156650389e-13  6.4960200947691651e-13  1.1830594636594420e-12  1.6031574925107229e-12  2.7096996070530967e-12  1.3780499718126313e-12  3.6050557405314638e-12  -1.5723243495541416e-12  3.4914560137591570e-12  -2.5301749991990201e-12  3.5994778972521980e-12  -8.1988064205423300e-14  2.6945204187967177e-12  -8.3710391273261100e-13  2.4077751646975435e-12  -5.2179912147588622e-13  1.2842374884507189e-12  -4.8072070612517954e-13  -7.0351984437026058e-14  -2.9411444114758392e-12  -3.1406996160727408e-12  -1.1315876478740646e-11  -4.0247839510170549e-12  -1.1315876478389818e-11  -3.1406996160416957e-12  -2.9411444114980899e-12  -7.0351984379354848e-14  -4.8072070598657064e-13  1.2842374885218774e-12  -5.2179912148991315e-13  2.4077751647234010e-12  -8.3710391268225395e-13  2.6945204188118800e-12  -8.1988064207753784e-14  3.5994778972557135e-12  -2.5301749991971283e-12  3.4914560137645563e-12  -1.5723243495492803e-12  3.6050557405346481e-12  1.3780499718163310e-12  2.7096996070531936e-12  1.6031574925084732e-12  1.1830594636578494e-12  6.4960200947542210e-13  1.5754773156543034e-13  8.1946895744926885e-14  -4.8754568433853671e-13  2.5295519274979729e-14  -1.4241557745816352e-13  4.3524784898383321e-14  -2.6375956391266987e-14  5.7047398307569466e-14  1.6949821601496791e-14  4.6679304430996196e-14  2.4202680150143894e-14  2.8907673532777176e-14  1.7700856502478200e-14  1.4736870966190195e-14  8.8388492401598380e-15  6.3929174336700825e-15  4.1808087568132516e-15  1.8187489523049758e-15  1.5436732442776774e-15  2.4952826573531071e-16  3.7655170894482820e-16  -1.4608154190572122e-16  8.5631015526447299e-18  -2.7926022417640223e-16  4.5288855940474500e-17  -1.4035448100497510e-16  -5.6247965312498593e-18  -1.7082081030834041e-17  -2.6674291880710082e-17  1.1284894361641185e-17  5.9128919570149134e-18  -2.7546522874073930e-17  -6.1824288780863496e-18  -2.8735634100414945e-16  1.0985469790009314e-16  -5.7498396372712915e-16  4.5921586452917976e-17  -2.8382395044749478e-16  8.1767785021160947e-16  5.4639872673758822e-16  3.2734070265770633e-15  3.7860301532571993e-15  9.0221634565667519e-15  1.2904777219910829e-14  1.9384740590696168e-14  3.0119870366854072e-14  3.6209459895205635e-14  5.8603725269860306e-14  4.5368929198950314e-14  9.1003726794617256e-14  2.0715648052625719e-14  1.0249260641736179e-13  -8.2225741906383254e-14  5.8827257325350946e-14  -4.1444486291804032e-13  1.2932942350355483e-13  -3.9185420255974372e-13  3.0114663082810139e-13  6.1547201406126337e-13  1.6508893597149334e-12  2.6078077791969366e-12  3.1336821321325587e-12  5.3308313606863134e-12  3.4828589859013848e-13  5.7711373517705337e-12  -4.7269235493263703e-12  5.5856388484342454e-12  -1.5121797713585817e-12  4.9443553164135040e-12  -1.3544367948579491e-12  3.8618080787109691e-12  -2.5966090518559300e-12  -1.8162388110524966e-13  -6.0359130281954993e-12  -1.9643351558541758e-12  -5.7352588257581838e-12  -1.9160830754182115e-12  -4.6338932427703902e-12  -9.9135380667335809e-12  -5.3806280511797372e-12  -9.9135380665811131e-12  -4.6338932428706826e-12  -1.9160830753579929e-12  -5.7352588253667658e-12  -1.9643351553934168e-12  -6.0359130283203761e-12  -1.8162388097983486e-13  -2.5966090516013215e-12  3.8618080787635048e-12  -1.3544367948485221e-12  4.9443553164230263e-12  -1.5121797713675143e-12  5.5856388484416383e-12  -4.7269235493172358e-12  5.7711373517769928e-12  3.4828589859852822e-13  5.3308313606892764e-12  3.1336821321362859e-12  2.6078077791941069e-12  1.6508893597128195e-12  6.1547201405854494e-13  3.0114663082858587e-13  -3.9185420256223415e-13  1.2932942350112155e-13  -4.1444486291840887e-13  5.8827257325936193e-14  -8.2225741906184991e-14  1.0249260641802252e-13  2.0715648052914631e-14  9.1003726795087140e-14  4.5368929199122677e-14  5.8603725270116604e-14  3.6209459895301334e-14  3.0119870367214019e-14  1.9384740590710008e-14  1.2904777220118962e-14  9.0221634566503807e-15  3.7860301533352302e-15  3.2734070266351866e-15  5.4639872677286134e-16  8.1767785024570167e-16  -2.8382395042420859e-16  4.5921586480774035e-17  -5.7498396363609746e-16  1.0985469789936304e-16  -2.8735634104855038e-16  -6.1824288865201602e-18  -2.7546522877668991e-17  5.9128919549626795e-18  1.1284894358086208e-17  -7.0342741983504748e-17  4.1421486183430783e-17  7.5096428156832638e-17  -6.8948223505209352e-17  5.9788873267211345e-18  -5.9295886196474770e-16  2.4018650783004451e-16  -1.1890132293952211e-15  1.2945020672929367e-16  -5.7267812909585458e-16  1.7420515369694612e-15  1.2083413161596208e-15  6.9390090117033401e-15  7.9494716232454723e-15  1.9122562149017116e-14  2.7125147234561848e-14  4.0391303349037545e-14  6.2718966364247151e-14  7.2906941236496338e-14  1.1898980198018276e-13  8.2461290901497107e-14  1.7624134276920475e-13  1.2189657069050297e-14  1.7864293022261746e-13  -2.3609288977272802e-13  4.1796808980992185e-14  -1.2860555308515671e-12  2.2758105871732924e-13  -9.5979135825711788e-14  1.0025161951617256e-12  1.7640793765483972e-12  3.8416387555693932e-12  6.1838541872039652e-12  4.2953761776307781e-12  9.5205503079557658e-12  -4.2183721728799143e-12  8.8663122166890422e-12  -8.2571128362640405e-12  9.4431674238606594e-12  4.9922489750084015e-13  4.7707752500905214e-12  -7.2265293624111588e-12  1.5670583682192482e-12  -6.2572778070429010e-12  -3.7244414672559467e-12  -5.2378411531342993e-12  -7.1867484634014820e-12  -1.8281864688968824e-11  -2.1664970098279590e-11  -7.2520378980526441e-11  -2.9912492599383719e-11  -7.2520378980363215e-11  -2.1664970098603922e-11  -1.8281864688018506e-11  -7.1867484628285763e-12  -5.2378411532760404e-12  -3.7244414671677292e-12  -6.2572778070814231e-12  1.5670583684168991e-12  -7.2265293626192497e-12  4.7707752501130653e-12  4.9922489748720298e-13  9.4431674238661848e-12  -8.2571128362499687e-12  8.8663122167018894e-12  -4.2183721728661688e-12  9.5205503079626870e-12  4.2953761776390758e-12  6.1838541872030831e-12  3.8416387555698779e-12  1.7640793765449908e-12  1.0025161951602118e-12  -9.5979135826691238e-14  2.2758105871809301e-13  -1.2860555308534442e-12  4.1796808981701427e-14  -2.3609288977234825e-13  1.7864293022384278e-13  1.2189657069785591e-14  1.7624134277013422e-13  8.2461290901953157e-14  1.1898980198076710e-13  7.2906941236764828e-14  6.2718966364610153e-14  4.0391303349077076e-14  2.7125147234978216e-14  1.9122562149188148e-14  7.9494716234175386e-15  6.9390090118152542e-15  1.2083413162241433e-15  1.7420515370334962e-15  -5.7267812905291254e-16  1.2945020678683792e-16  -1.1890132292052346e-15  2.4018650782845279e-16  -5.9295886205644480e-16  5.9788873132396002e-18  -6.8948223512622623e-17  7.5096428151096534e-17  4.1421486180087911e-17  -7.0342741981018431e-17  1.1436301789141276e-16  7.1707384341262503e-17  9.2724265980898667e-17  1.7270875044845769e-16  -1.4918063031094321e-16  4.0307472642833246e-17  -1.2294700840544966e-15  5.0605962314532633e-16  -2.4811791108849927e-15  3.0137085530543535e-16  -1.1753668368250200e-15  3.6913063257759128e-15  2.6254834144370945e-15  1.4664394299046771e-14  1.7037160770592101e-14  4.0243890970579604e-14  5.7190182323879289e-14  8.4082502713160397e-14  1.3057319817203480e-13  1.4457845964003696e-13  2.4173047187275493e-13  1.4448629902374554e-13  3.3766884307176001e-13  -4.2254439808647240e-14  2.9809412825512954e-13  -6.2280252255718174e-13  -4.5437134937628137e-14  -3.7233173115015320e-12  2.6766243172667220e-13  4.4180309263796913e-13  2.8076917813356986e-12  5.2050474718854845e-12  7.2322008136698102e-12  1.3362117278236488e-11  3.3693001377060559e-12  1.5404994957367733e-11  -1.4779074985181817e-11  1.4042213746706449e-11  -7.1314725836400760e-12  9.2567277045352861e-12  -1.0308549595421443e-11  6.3713343925024295e-12  -2.0547597835730095e-11  -2.8368877841555592e-11  -5.9617788218227991e-11  -2.9925431254323955e-11  -5.6763248471639916e-11  -1.6199080292870222e-11  -2.4710430919463118e-11  -5.1021452841332794e-11  -2.5073275816065038e-11  -5.1021452841470843e-11  -2.4710430919563217e-11  -1.6199080291963987e-11  -5.6763248470790499e-11  -2.9925431254697169e-11  -5.9617788217840689e-11  -2.8368877840756791e-11  -2.0547597836689928e-11  6.3713343924536129e-12  -1.0308549595399109e-11  9.2567277045795402e-12  -7.1314725835526210e-12  1.4042213746730980e-11  -1.4779074985133621e-11  1.5404994957385039e-11  3.3693001377223281e-12  1.3362117278242924e-11  7.2322008136699394e-12  5.2050474718802791e-12  2.8076917813318551e-12  4.4180309263647875e-13  2.6766243172603728e-13  -3.7233173114979801e-12  -4.5437134937437093e-14  -6.2280252255621017e-13  2.9809412825732149e-13  -4.2254439807880341e-14  3.3766884307358583e-13  1.4448629902464784e-13  2.4173047187393340e-13  1.4457845964071435e-13  1.3057319817277110e-13  8.4082502713702325e-14  5.7190182324347582e-14  4.0243890970910332e-14  1.7037160770939843e-14  1.4664394299271590e-14  2.6254834145736968e-15  3.6913063259006665e-15  -1.1753668367411057e-15  3.0137085542036529e-16  -2.4811791104989754e-15  5.0605962314140846e-16  -1.2294700842457009e-15  4.0307472615381675e-17  -1.4918063032291319e-16  1.7270875043809157e-16  9.2724265971969452e-17  7.1707384336815891e-17  1.1436301788563159e-16  -1.9877888341516560e-16  2.2148143749950700e-16  3.7995412039869744e-16  1.5031041315397604e-16  3.7297684626246575e-16  -2.9022210291683590e-16  1.1696582190837243e-16  -2.5700655514029998e-15  1.0566824273588172e-15 