<?xml version="1.0"?>
<VTKFile type="UnstructuredGrid"  version="0.1"  >
<UnstructuredGrid>
<Piece  NumberOfPoints="40301" NumberOfCells="80000">
<Points>
<DataArray  type="Float64"  NumberOfComponents="3"  format="ascii">0 0 0  0.01 0 0  0.02 0 0  0.03 0 0  0.04 0 0  0.05 0 0  0.06 0 0  0.07000000000000001 0 0  0.08 0 0  0.09 0 0  0.1 0 0  0.11 0 0  0.12 0 0  0.13 0 0  0.14 0 0  0.15 0 0  0.16 0 0  0.17 0 0  0.18 0 0  0.19 0 0  0.2 0 0  0.21 0 0  0.22 0 0  0.23 0 0  0.24 0 0  0.25 0 0  0.26 0 0  0.27 0 0  0.28 0 0  0.29 0 0  0.3 0 0  0.31 0 0  0.32 0 0  0.33 0 0  0.34 0 0  0.35 0 0  0.36 0 0  0.37 0 0  0.38 0 0  0.39 0 0  0.4 0 0  0.41 0 0  0.42 0 0  0.43 0 0  0.44 0 0  0.45 0 0  0.46 0 0  0.47 0 0  0.48 0 0  0.49 0 0  0.5 0 0  0.51 0 0  0.52 0 0  0.53 0 0  0.54 0 0  0.55 0 0  0.5600000000000001 0 0  0.57 0 0  0.58 0 0  0.59 0 0  0.6 0 0  0.61 0 0  0.62 0 0  0.63 0 0  0.64 0 0  0.65 0 0  0.66 0 0  0.67 0 0  0.68 0 0  0.6899999999999999 0 0  0.7 0 0  0.71 0 0  0.72 0 0  0.73 0 0  0.74 0 0  0.75 0 0  0.76 0 0  0.77 0 0  0.78 0 0  0.79 0 0  0.8 0 0  0.8100000000000001 0 0  0.82 0 0  0.83 0 0  0.84 0 0  0.85 0 0  0.86 0 0  0.87 0 0  0.88 0 0  0.89 0 0  0.9 0 0  0.91 0 0  0.92 0 0  0.93 0 0  0.9399999999999999 0 0  0.95 0 0  0.96 0 0  0.97 0 0  0.98 0 0  0.99 0 0  1 0 0  0 0.01 0  0.01 0.01 0  0.02 0.01 0  0.03 0.01 0  0.04 0.01 0  0.05 0.01 0  0.06 0.01 0  0.07000000000000001 0.01 0  0.08 0.01 0  0.09 0.01 0  0.1 0.01 0  0.11 0.01 0  0.12 0.01 0  0.13 0.01 0  0.14 0.01 0  0.15 0.01 0  0.16 0.01 0  0.17 0.01 0  0.18 0.01 0  0.19 0.01 0  0.2 0.01 0  0.21 0.01 0  0.22 0.01 0  0.23 0.01 0  0.24 0.01 0  0.25 0.01 0  0.26 0.01 0  0.27 0.01 0  0.28 0.01 0  0.29 0.01 0  0.3 0.01 0  0.31 0.01 0  0.32 0.01 0  0.33 0.01 0  0.34 0.01 0  0.35 0.01 0  0.36 0.01 0  0.37 0.01 0  0.38 0.01 0  0.39 0.01 0  0.4 0.01 0  0.41 0.01 0  0.42 0.01 0  0.43 0.01 0  0.44 0.01 0  0.45 0.01 0  0.46 0.01 0  0.47 0.01 0  0.48 0.01 0  0.49 0.01 0  0.5 0.01 0  0.51 0.01 0  0.52 0.01 0  0.53 0.01 0  0.54 0.01 0  0.55 0.01 0  0.5600000000000001 0.01 0  0.57 0.01 0  0.58 0.01 0  0.59 0.01 0  0.6 0.01 0  0.61 0.01 0  0.62 0.01 0  0.63 0.01 0  0.64 0.01 0  0.65 0.01 0  0.66 0.01 0  0.67 0.01 0  0.68 0.01 0  0.6899999999999999 0.01 0  0.7 0.01 0  0.71 0.01 0  0.72 0.01 0  0.73 0.01 0  0.74 0.01 0  0.75 0.01 0  0.76 0.01 0  0.77 0.01 0  0.78 0.01 0  0.79 0.01 0  0.8 0.01 0  0.8100000000000001 0.01 0  0.82 0.01 0  0.83 0.01 0  0.84 0.01 0  0.85 0.01 0  0.86 0.01 0  0.87 0.01 0  0.88 0.01 0  0.89 0.01 0  0.9 0.01 0  0.91 0.01 0  0.92 0.01 0  0.93 0.01 0  0.9399999999999999 0.01 0  0.95 0.01 0  0.96 0.01 0  0.97 0.01 0  0.98 0.01 0  0.99 0.01 0  1 0.01 0  0 0.02 0  0.01 0.02 0  0.02 0.02 0  0.03 0.02 0  0.04 0.02 0  0.05 0.02 0  0.06 0.02 0  0.07000000000000001 0.02 0  0.08 0.02 0  0.09 0.02 0  0.1 0.02 0  0.11 0.02 0  0.12 0.02 0  0.13 0.02 0  0.14 0.02 0  0.15 0.02 0  0.16 0.02 0  0.17 0.02 0  0.18 0.02 0  0.19 0.02 0  0.2 0.02 0  0.21 0.02 0  0.22 0.02 0  0.23 0.02 0  0.24 0.02 0  0.25 0.02 0  0.26 0.02 0  0.27 0.02 0  0.28 0.02 0  0.29 0.02 0  0.3 0.02 0  0.31 0.02 0  0.32 0.02 0  0.33 0.02 0  0.34 0.02 0  0.35 0.02 0  0.36 0.02 0  0.37 0.02 0  0.38 0.02 0  0.39 0.02 0  0.4 0.02 0  0.41 0.02 0  0.42 0.02 0  0.43 0.02 0  0.44 0.02 0  0.45 0.02 0  0.46 0.02 0  0.47 0.02 0  0.48 0.02 0  0.49 0.02 0  0.5 0.02 0  0.51 0.02 0  0.52 0.02 0  0.53 0.02 0  0.54 0.02 0  0.55 0.02 0  0.5600000000000001 0.02 0  0.57 0.02 0  0.58 0.02 0  0.59 0.02 0  0.6 0.02 0  0.61 0.02 0  0.62 0.02 0  0.63 0.02 0  0.64 0.02 0  0.65 0.02 0  0.66 0.02 0  0.67 0.02 0  0.68 0.02 0  0.6899999999999999 0.02 0  0.7 0.02 0  0.71 0.02 0  0.72 0.02 0  0.73 0.02 0  0.74 0.02 0  0.75 0.02 0  0.76 0.02 0  0.77 0.02 0  0.78 0.02 0  0.79 0.02 0  0.8 0.02 0  0.8100000000000001 0.02 0  0.82 0.02 0  0.83 0.02 0  0.84 0.02 0  0.85 0.02 0  0.86 0.02 0  0.87 0.02 0  0.88 0.02 0  0.89 0.02 0  0.9 0.02 0  0.91 0.02 0  0.92 0.02 0  0.93 0.02 0  0.9399999999999999 0.02 0  0.95 0.02 0  0.96 0.02 0  0.97 0.02 0  0.98 0.02 0  0.99 0.02 0  1 0.02 0  0 0.03 0  0.01 0.03 0  0.02 0.03 0  0.03 0.03 0  0.04 0.03 0  0.05 0.03 0  0.06 0.03 0  0.07000000000000001 0.03 0  0.08 0.03 0  0.09 0.03 0  0.1 0.03 0  0.11 0.03 0  0.12 0.03 0  0.13 0.03 0  0.14 0.03 0  0.15 0.03 0  0.16 0.03 0  0.17 0.03 0  0.18 0.03 0  0.19 0.03 0  0.2 0.03 0  0.21 0.03 0  0.22 0.03 0  0.23 0.03 0  0.24 0.03 0  0.25 0.03 0  0.26 0.03 0  0.27 0.03 0  0.28 0.03 0  0.29 0.03 0  0.3 0.03 0  0.31 0.03 0  0.32 0.03 0  0.33 0.03 0  0.34 0.03 0  0.35 0.03 0  0.36 0.03 0  0.37 0.03 0  0.38 0.03 0  0.39 0.03 0  0.4 0.03 0  0.41 0.03 0  0.42 0.03 0  0.43 0.03 0  0.44 0.03 0  0.45 0.03 0  0.46 0.03 0  0.47 0.03 0  0.48 0.03 0  0.49 0.03 0  0.5 0.03 0  0.51 0.03 0  0.52 0.03 0  0.53 0.03 0  0.54 0.03 0  0.55 0.03 0  0.5600000000000001 0.03 0  0.57 0.03 0  0.58 0.03 0  0.59 0.03 0  0.6 0.03 0  0.61 0.03 0  0.62 0.03 0  0.63 0.03 0  0.64 0.03 0  0.65 0.03 0  0.66 0.03 0  0.67 0.03 0  0.68 0.03 0  0.6899999999999999 0.03 0  0.7 0.03 0  0.71 0.03 0  0.72 0.03 0  0.73 0.03 0  0.74 0.03 0  0.75 0.03 0  0.76 0.03 0  0.77 0.03 0  0.78 0.03 0  0.79 0.03 0  0.8 0.03 0  0.8100000000000001 0.03 0  0.82 0.03 0  0.83 0.03 0  0.84 0.03 0  0.85 0.03 0  0.86 0.03 0  0.87 0.03 0  0.88 0.03 0  0.89 0.03 0  0.9 0.03 0  0.91 0.03 0  0.92 0.03 0  0.93 0.03 0  0.9399999999999999 0.03 0  0.95 0.03 0  0.96 0.03 0  0.97 0.03 0  0.98 0.03 0  0.99 0.03 0  1 0.03 0  0 0.04 0  0.01 0.04 0  0.02 0.04 0  0.03 0.04 0  0.04 0.04 0  0.05 0.04 0  0.06 0.04 0  0.07000000000000001 0.04 0  0.08 0.04 0  0.09 0.04 0  0.1 0.04 0  0.11 0.04 0  0.12 0.04 0  0.13 0.04 0  0.14 0.04 0  0.15 0.04 0  0.16 0.04 0  0.17 0.04 0  0.18 0.04 0  0.19 0.04 0  0.2 0.04 0  0.21 0.04 0  0.22 0.04 0  0.23 0.04 0  0.24 0.04 0  0.25 0.04 0  0.26 0.04 0  0.27 0.04 0  0.28 0.04 0  0.29 0.04 0  0.3 0.04 0  0.31 0.04 0  0.32 0.04 0  0.33 0.04 0  0.34 0.04 0  0.35 0.04 0  0.36 0.04 0  0.37 0.04 0  0.38 0.04 0  0.39 0.04 0  0.4 0.04 0  0.41 0.04 0  0.42 0.04 0  0.43 0.04 0  0.44 0.04 0  0.45 0.04 0  0.46 0.04 0  0.47 0.04 0  0.48 0.04 0  0.49 0.04 0  0.5 0.04 0  0.51 0.04 0  0.52 0.04 0  0.53 0.04 0  0.54 0.04 0  0.55 0.04 0  0.5600000000000001 0.04 0  0.57 0.04 0  0.58 0.04 0  0.59 0.04 0  0.6 0.04 0  0.61 0.04 0  0.62 0.04 0  0.63 0.04 0  0.64 0.04 0  0.65 0.04 0  0.66 0.04 0  0.67 0.04 0  0.68 0.04 0  0.6899999999999999 0.04 0  0.7 0.04 0  0.71 0.04 0  0.72 0.04 0  0.73 0.04 0  0.74 0.04 0  0.75 0.04 0  0.76 0.04 0  0.77 0.04 0  0.78 0.04 0  0.79 0.04 0  0.8 0.04 0  0.8100000000000001 0.04 0  0.82 0.04 0  0.83 0.04 0  0.84 0.04 0  0.85 0.04 0  0.86 0.04 0  0.87 0.04 0  0.88 0.04 0  0.89 0.04 0  0.9 0.04 0  0.91 0.04 0  0.92 0.04 0  0.93 0.04 0  0.9399999999999999 0.04 0  0.95 0.04 0  0.96 0.04 0  0.97 0.04 0  0.98 0.04 0  0.99 0.04 0  1 0.04 0  0 0.05 0  0.01 0.05 0  0.02 0.05 0  0.03 0.05 0  0.04 0.05 0  0.05 0.05 0  0.06 0.05 0  0.07000000000000001 0.05 0  0.08 0.05 0  0.09 0.05 0  0.1 0.05 0  0.11 0.05 0  0.12 0.05 0  0.13 0.05 0  0.14 0.05 0  0.15 0.05 0  0.16 0.05 0  0.17 0.05 0  0.18 0.05 0  0.19 0.05 0  0.2 0.05 0  0.21 0.05 0  0.22 0.05 0  0.23 0.05 0  0.24 0.05 0  0.25 0.05 0  0.26 0.05 0  0.27 0.05 0  0.28 0.05 0  0.29 0.05 0  0.3 0.05 0  0.31 0.05 0  0.32 0.05 0  0.33 0.05 0  0.34 0.05 0  0.35 0.05 0  0.36 0.05 0  0.37 0.05 0  0.38 0.05 0  0.39 0.05 0  0.4 0.05 0  0.41 0.05 0  0.42 0.05 0  0.43 0.05 0  0.44 0.05 0  0.45 0.05 0  0.46 0.05 0  0.47 0.05 0  0.48 0.05 0  0.49 0.05 0  0.5 0.05 0  0.51 0.05 0  0.52 0.05 0  0.53 0.05 0  0.54 0.05 0  0.55 0.05 0  0.5600000000000001 0.05 0  0.57 0.05 0  0.58 0.05 0  0.59 0.05 0  0.6 0.05 0  0.61 0.05 0  0.62 0.05 0  0.63 0.05 0  0.64 0.05 0  0.65 0.05 0  0.66 0.05 0  0.67 0.05 0  0.68 0.05 0  0.6899999999999999 0.05 0  0.7 0.05 0  0.71 0.05 0  0.72 0.05 0  0.73 0.05 0  0.74 0.05 0  0.75 0.05 0  0.76 0.05 0  0.77 0.05 0  0.78 0.05 0  0.79 0.05 0  0.8 0.05 0  0.8100000000000001 0.05 0  0.82 0.05 0  0.83 0.05 0  0.84 0.05 0  0.85 0.05 0  0.86 0.05 0  0.87 0.05 0  0.88 0.05 0  0.89 0.05 0  0.9 0.05 0  0.91 0.05 0  0.92 0.05 0  0.93 0.05 0  0.9399999999999999 0.05 0  0.95 0.05 0  0.96 0.05 0  0.97 0.05 0  0.98 0.05 0  0.99 0.05 0  1 0.05 0  0 0.06 0  0.01 0.06 0  0.02 0.06 0  0.03 0.06 0  0.04 0.06 0  0.05 0.06 0  0.06 0.06 0  0.07000000000000001 0.06 0  0.08 0.06 0  0.09 0.06 0  0.1 0.06 0  0.11 0.06 0  0.12 0.06 0  0.13 0.06 0  0.14 0.06 0  0.15 0.06 0  0.16 0.06 0  0.17 0.06 0  0.18 0.06 0  0.19 0.06 0  0.2 0.06 0  0.21 0.06 0  0.22 0.06 0  0.23 0.06 0  0.24 0.06 0  0.25 0.06 0  0.26 0.06 0  0.27 0.06 0  0.28 0.06 0  0.29 0.06 0  0.3 0.06 0  0.31 0.06 0  0.32 0.06 0  0.33 0.06 0  0.34 0.06 0  0.35 0.06 0  0.36 0.06 0  0.37 0.06 0  0.38 0.06 0  0.39 0.06 0  0.4 0.06 0  0.41 0.06 0  0.42 0.06 0  0.43 0.06 0  0.44 0.06 0  0.45 0.06 0  0.46 0.06 0  0.47 0.06 0  0.48 0.06 0  0.49 0.06 0  0.5 0.06 0  0.51 0.06 0  0.52 0.06 0  0.53 0.06 0  0.54 0.06 0  0.55 0.06 0  0.5600000000000001 0.06 0  0.57 0.06 0  0.58 0.06 0  0.59 0.06 0  0.6 0.06 0  0.61 0.06 0  0.62 0.06 0  0.63 0.06 0  0.64 0.06 0  0.65 0.06 0  0.66 0.06 0  0.67 0.06 0  0.68 0.06 0  0.6899999999999999 0.06 0  0.7 0.06 0  0.71 0.06 0  0.72 0.06 0  0.73 0.06 0  0.74 0.06 0  0.75 0.06 0  0.76 0.06 0  0.77 0.06 0  0.78 0.06 0  0.79 0.06 0  0.8 0.06 0  0.8100000000000001 0.06 0  0.82 0.06 0  0.83 0.06 0  0.84 0.06 0  0.85 0.06 0  0.86 0.06 0  0.87 0.06 0  0.88 0.06 0  0.89 0.06 0  0.9 0.06 0  0.91 0.06 0  0.92 0.06 0  0.93 0.06 0  0.9399999999999999 0.06 0  0.95 0.06 0  0.96 0.06 0  0.97 0.06 0  0.98 0.06 0  0.99 0.06 0  1 0.06 0  0 0.07000000000000001 0  0.01 0.07000000000000001 0  0.02 0.07000000000000001 0  0.03 0.07000000000000001 0  0.04 0.07000000000000001 0  0.05 0.07000000000000001 0  0.06 0.07000000000000001 0  0.07000000000000001 0.07000000000000001 0  0.08 0.07000000000000001 0  0.09 0.07000000000000001 0  0.1 0.07000000000000001 0  0.11 0.07000000000000001 0  0.12 0.07000000000000001 0  0.13 0.07000000000000001 0  0.14 0.07000000000000001 0  0.15 0.07000000000000001 0  0.16 0.07000000000000001 0  0.17 0.0700
[...]
<PointData  Scalars="pressure"> 
<DataArray  type="Float64"  Name="pressure"  format="ascii">1.5305927290069346e+03  1.5305535423363408e+03  1.5304360604595649e+03  1.5302405183055362e+03  1.5299673091634018e+03  1.5296169872751991e+03  1.5291902714276866e+03  1.5286880495045000e+03  1.5281113839474276e+03  1.5274615180622366e+03  1.5267398830900913e+03  1.5259481059499540e+03  1.5250880175404529e+03  1.5241616614714640e+03  1.5231713030761102e+03  1.5221194385331810e+03  1.5210088039083000e+03  1.5198423838997487e+03  1.5186234200522274e+03  1.5173554181793734e+03  1.5160421547143012e+03  1.5146876816875790e+03  1.5132963300147276e+03  1.5118727107616953e+03  1.5104217140478499e+03  1.5089485052431608e+03  1.5074585181206617e+03  1.5059574446382383e+03  1.5044512210466710e+03  1.5029460100544291e+03  1.5014481788253038e+03  1.4999642726427392e+03  1.4985009841451758e+03  1.4970651181194082e+03  1.4956635519330928e+03  1.4943031917916896e+03  1.4929909251170811e+03  1.4917335694621288e+03  1.4905378184941142e+03  1.4894101856962775e+03  1.4883569465461792e+03  1.4873840800276453e+03  1.4864972104148922e+03  1.4857015503286075e+03  1.4850018461000561e+03  1.4844023264877158e+03  1.4839066557688309e+03  1.4835178921748177e+03  1.4832384525546915e+03  1.4830700840364473e+03  1.4830138433155057e+03  1.4830700840364468e+03  1.4832384525546911e+03  1.4835178921748172e+03  1.4839066557688313e+03  1.4844023264877162e+03  1.4850018461000570e+03  1.4857015503286098e+03  1.4864972104148956e+03  1.4873840800276471e+03  1.4883569465461824e+03  1.4894101856962809e+03  1.4905378184941164e+03  1.4917335694621315e+03  1.4929909251170843e+03  1.4943031917916924e+03  1.4956635519330966e+03  1.4970651181194132e+03  1.4985009841451817e+03  1.4999642726427442e+03  1.5014481788253086e+03  1.5029460100544345e+03  1.5044512210466776e+03  1.5059574446382451e+03  1.5074585181206687e+03  1.5089485052431694e+03  1.5104217140478577e+03  1.5118727107617035e+03  1.5132963300147367e+03  1.5146876816875904e+03  1.5160421547143121e+03  1.5173554181793841e+03  1.5186234200522388e+03  1.5198423838997599e+03  1.5210088039083114e+03  1.5221194385331928e+03  1.5231713030761207e+03  1.5241616614714753e+03  1.5250880175404650e+03  1.5259481059499672e+03  1.5267398830901052e+03  1.5274615180622482e+03  1.5281113839474392e+03  1.5286880495045123e+03  1.5291902714276996e+03  1.5296169872752125e+03  1.5299673091634136e+03  1.5302405183055494e+03  1.5304360604595786e+03  1.5305535423363540e+03  1.5305927290069510e+03  1.5207918992819750e+03  1.5207527134403870e+03  1.5206352340561657e+03  1.5204396960747647e+03  1.5201664928126947e+03  1.5198161785498951e+03  1.5193894721211514e+03  1.5188872614677148e+03  1.5183106090978863e+03  1.5176607583920086e+03  1.5169391406728771e+03  1.5161473829469535e+03  1.5152873162048704e+03  1.5143609841514221e+03  1.5133706522157645e+03  1.5123188166718098e+03  1.5112082136771214e+03  1.5100418280162423e+03  1.5088229013117145e+03  1.5075549394436271e+03  1.5062417188969912e+03  1.5048872917363547e+03  1.5034959888898072e+03  1.5020724214108714e+03  1.5006214793778709e+03  1.4991483280875525e+03  1.4976584012041114e+03  1.4961573905378066e+03  1.4946512321501668e+03  1.4931460885164404e+03  1.4916483265214949e+03  1.4901644911231588e+03  1.4887012745874422e+03  1.4872654812827675e+03  1.4858639881144525e+03  1.4845037007848009e+03  1.4831915061760992e+03  1.4819342212708029e+03  1.4807385391418338e+03  1.4796109726621185e+03  1.4785577966919875e+03  1.4775849896010027e+03  1.4766981750626351e+03  1.4759025651212421e+03  1.4752029055671833e+03  1.4746034246642223e+03  1.4741077862512825e+03  1.4737190481871610e+03  1.4734396270220598e+03  1.4732712696655942e+03  1.4732150326801402e+03  1.4732712696655940e+03  1.4734396270220598e+03  1.4737190481871605e+03  1.4741077862512832e+03  1.4746034246642228e+03  1.4752029055671840e+03  1.4759025651212442e+03  1.4766981750626380e+03  1.4775849896010050e+03  1.4785577966919898e+03  1.4796109726621216e+03  1.4807385391418368e+03  1.4819342212708059e+03  1.4831915061761022e+03  1.4845037007848048e+03  1.4858639881144575e+03  1.4872654812827727e+03  1.4887012745874474e+03  1.4901644911231642e+03  1.4916483265215008e+03  1.4931460885164456e+03  1.4946512321501723e+03  1.4961573905378139e+03  1.4976584012041183e+03  1.4991483280875609e+03  1.5006214793778797e+03  1.5020724214108805e+03  1.5034959888898175e+03  1.5048872917363642e+03  1.5062417188970014e+03  1.5075549394436375e+03  1.5088229013117245e+03  1.5100418280162530e+03  1.5112082136771323e+03  1.5123188166718214e+03  1.5133706522157761e+03  1.5143609841514340e+03  1.5152873162048822e+03  1.5161473829469660e+03  1.5169391406728894e+03  1.5176607583920222e+03  1.5183106090978990e+03  1.5188872614677271e+03  1.5193894721211636e+03  1.5198161785499078e+03  1.5201664928127082e+03  1.5204396960747786e+03  1.5206352340561793e+03  1.5207527134404008e+03  1.5207918992819898e+03  1.5110698216895782e+03  1.5110305582808658e+03  1.5109128456736526e+03  1.5107169172538115e+03  1.5104431637562375e+03  1.5100921358841458e+03  1.5096645479389447e+03  1.5091612824226056e+03  1.5085833955622168e+03  1.5079321236932469e+03  1.5072088904237473e+03  1.5064153144861791e+03  1.5055532181666483e+03  1.5046246361830706e+03  1.5036318248641505e+03  1.5025772714601746e+03  1.5014637033946067e+03  1.5002940972427539e+03  1.4990716872005273e+03  1.4977999727832971e+03  1.4964827254724798e+03  1.4951239940067474e+03  1.4937281079964105e+03  1.4922996795247318e+03  1.4908436023898203e+03  1.4893650486366071e+03  1.4878694620315359e+03  1.4863625481443914e+03  1.4848502607233754e+03  1.4833387840823536e+03  1.4818345112640770e+03  1.4803440178008291e+03  1.4788740309646009e+03  1.4774313944824555e+03  1.4760230287882780e+03  1.4746558869883522e+03  1.4733369068329198e+03  1.4720729591062884e+03  1.4708707929706825e+03  1.4697369789196739e+03  1.4686778501111787e+03  1.4676994429527497e+03  1.4668074378982094e+03  1.4660071014798464e+03  1.4653032306400542e+03  1.4647001004369463e+03  1.4642014161775514e+03  1.4638102709784582e+03  1.4635291096674196e+03  1.4633596998221165e+03  1.4633031105971622e+03  1.4633596998221160e+03  1.4635291096674205e+03  1.4638102709784582e+03  1.4642014161775523e+03  1.4647001004369472e+03  1.4653032306400557e+03  1.4660071014798486e+03  1.4668074378982121e+03  1.4676994429527520e+03  1.4686778501111814e+03  1.4697369789196773e+03  1.4708707929706866e+03  1.4720729591062916e+03  1.4733369068329237e+03  1.4746558869883568e+03  1.4760230287882830e+03  1.4774313944824614e+03  1.4788740309646071e+03  1.4803440178008350e+03  1.4818345112640827e+03  1.4833387840823589e+03  1.4848502607233816e+03  1.4863625481443980e+03  1.4878694620315434e+03  1.4893650486366155e+03  1.4908436023898296e+03  1.4922996795247411e+03  1.4937281079964205e+03  1.4951239940067571e+03  1.4964827254724898e+03  1.4977999727833073e+03  1.4990716872005373e+03  1.5002940972427646e+03  1.5014637033946181e+03  1.5025772714601860e+03  1.5036318248641624e+03  1.5046246361830811e+03  1.5055532181666604e+03  1.5064153144861918e+03  1.5072088904237603e+03  1.5079321236932608e+03  1.5085833955622304e+03  1.5091612824226188e+03  1.5096645479389570e+03  1.5100921358841586e+03  1.5104431637562514e+03  1.5107169172538247e+03  1.5109128456736667e+03  1.5110305582808805e+03  1.5110698216895939e+03  1.5014265874540120e+03  1.5013871686621721e+03  1.5012689888520263e+03  1.5010722782592773e+03  1.5007974224037209e+03  1.5004449647621043e+03  1.5000156104745602e+03  1.4995102310480434e+03  1.4989298700083691e+03  1.4982757494395917e+03  1.4975492773354265e+03  1.4967520556720542e+03  1.4958858890948159e+03  1.4949527940929795e+03  1.4939550085169433e+03  1.4928950012709611e+03  1.4917754819919289e+03  1.4905994105011991e+03  1.4893700057922003e+03  1.4880907542922218e+03  1.4867654171128847e+03  1.4853980359811617e+03  1.4839929375224199e+03  1.4825547355498154e+03  1.4810883310017609e+03  1.4795989091623835e+03  1.4780919338004351e+03  1.4765731378712953e+03  1.4750485104461504e+03  1.4735242795633260e+03  1.4720068907403411e+03  1.4705029809423893e+03  1.4690193478740584e+03  1.4675629145462331e+03  1.4661406891685599e+03  1.4647597205283068e+03  1.4634270491368043e+03  1.4621496545520299e+03  1.4609343994166441e+03  1.4597879708805101e+03  1.4587168202005162e+03  1.4577271014230366e+03  1.4568246101500761e+03  1.4560147234637693e+03  1.4553023421305052e+03  1.4546918362214951e+03  1.4541869952680854e+03  1.4537909840159914e+03  1.4535063047529350e+03  1.4533347670605642e+03  1.4532774656874794e+03  1.4533347670605647e+03  1.4535063047529359e+03  1.4537909840159923e+03  1.4541869952680863e+03  1.4546918362214958e+03  1.4553023421305063e+03  1.4560147234637718e+03  1.4568246101500788e+03  1.4577271014230394e+03  1.4587168202005187e+03  1.4597879708805131e+03  1.4609343994166475e+03  1.4621496545520333e+03  1.4634270491368084e+03  1.4647597205283116e+03  1.4661406891685656e+03  1.4675629145462385e+03  1.4690193478740644e+03  1.4705029809423957e+03  1.4720068907403477e+03  1.4735242795633328e+03  1.4750485104461573e+03  1.4765731378713022e+03  1.4780919338004423e+03  1.4795989091623919e+03  1.4810883310017700e+03  1.4825547355498263e+03  1.4839929375224294e+03  1.4853980359811724e+03  1.4867654171128956e+03  1.4880907542922318e+03  1.4893700057922103e+03  1.4905994105012091e+03  1.4917754819919396e+03  1.4928950012709724e+03  1.4939550085169546e+03  1.4949527940929906e+03  1.4958858890948279e+03  1.4967520556720665e+03  1.4975492773354385e+03  1.4982757494396044e+03  1.4989298700083825e+03  1.4995102310480565e+03  1.5000156104745731e+03  1.5004449647621177e+03  1.5007974224037343e+03  1.5010722782592909e+03  1.5012689888520404e+03  1.5013871686621869e+03  1.5014265874540267e+03  1.4918622415838115e+03  1.4918225909120169e+03  1.4917037138678543e+03  1.4915058359200218e+03  1.4912293346951676e+03  1.4908747427297458e+03  1.4904427512894397e+03  1.4899342152219178e+03  1.4893501587974229e+03  1.4886917824793429e+03  1.4879604705533011e+03  1.4871577995281884e+03  1.4862855472059011e+03  1.4853457022981440e+03  1.4843404744485892e+03  1.4832723044968702e+03  1.4821438747975110e+03  1.4809581193821912e+03  1.4797182337279662e+03  1.4784276838678011e+03  1.4770902145534938e+03  1.4757098561557107e+03  1.4742909299622336e+03  1.4728380515148510e+03  1.4713561316088187e+03  1.4698503745680191e+03  1.4683262734052951e+03  1.4667896014826927e+03  1.4652464003020748e+03  1.4637029630844352e+03  1.4621658138376333e+03  1.4606416816684011e+03  1.4591374701660600e+03  1.4576602217727145e+03  1.4562170771573308e+03  1.4548152297278818e+03  1.4534618755446204e+03  1.4521641590355384e+03  1.4509291150583372e+03  1.4497636079970121e+03  1.4486742687199653e+03  1.4476674303543857e+03  1.4467490639421512e+03  1.4459247151295085e+03  1.4451994431004987e+03  1.4445777629875111e+03  1.4440635929778812e+03  1.4436602072809171e+03  1.4433701960249909e+03  1.4431954330210435e+03  1.4431370521608378e+03  1.4431954330210440e+03  1.4433701960249914e+03  1.4436602072809180e+03  1.4440635929778825e+03  1.4445777629875120e+03  1.4451994431005005e+03  1.4459247151295103e+03  1.4467490639421535e+03  1.4476674303543887e+03  1.4486742687199680e+03  1.4497636079970146e+03  1.4509291150583408e+03  1.4521641590355418e+03  1.4534618755446243e+03  1.4548152297278866e+03  1.4562170771573367e+03  1.4576602217727204e+03  1.4591374701660657e+03  1.4606416816684068e+03  1.4621658138376397e+03  1.4637029630844418e+03  1.4652464003020818e+03  1.4667896014826993e+03  1.4683262734053021e+03  1.4698503745680273e+03  1.4713561316088283e+03  1.4728380515148610e+03  1.4742909299622443e+03  1.4757098561557202e+03  1.4770902145535035e+03  1.4784276838678111e+03  1.4797182337279762e+03  1.4809581193822014e+03  1.4821438747975219e+03  1.4832723044968818e+03  1.4843404744486013e+03  1.4853457022981547e+03  1.4862855472059132e+03  1.4871577995282005e+03  1.4879604705533127e+03  1.4886917824793547e+03  1.4893501587974361e+03  1.4899342152219308e+03  1.4904427512894526e+03  1.4908747427297583e+03  1.4912293346951810e+03  1.4915058359200357e+03  1.4917037138678684e+03  1.4918225909120324e+03  1.4918622415838274e+03  1.4823772239494851e+03  1.4823372665209013e+03  1.4822174670563795e+03  1.4820180445947162e+03  1.4817393661134308e+03  1.4813819493833403e+03  1.4809464669350507e+03  1.4804337511063393e+03  1.4798448001289116e+03  1.4791807852013978e+03  1.4784430584823767e+03  1.4776331619226009e+03  1.4767528368390856e+03  1.4758040341153760e+03  1.4747889248919000e+03  1.4737099115878732e+03  1.4725696390718053e+03  1.4713710057714650e+03  1.4701171744863825e+03  1.4688115826371520e+03  1.4674579516564199e+03  1.4660602951973233e+03  1.4646229258072585e+03  1.4631504596892880e+03  1.4616478191517713e+03  1.4601202323302623e+03  1.4585732297564109e+03  1.4570126373480978e+03  1.4554445654055507e+03  1.4538753932215163e+03  1.4523117489515746e+03  1.4507604844450327e+03  1.4492286448085895e+03  1.4477234325649420e+03  1.4462521663764589e+03  1.4448222344292103e+03  1.4434410427129735e+03  1.4421159585853684e+03  1.4408542501688073e+03  1.4396630222923116e+03  1.4385491498501426e+03  1.4375192095986786e+03  1.4365794115446167e+03  1.4357355311838087e+03  1.4349928439238383e+03  1.4343560630585316e+03  1.4338292826542713e+03  1.4334159266533211e+03  1.4331187053978085e+03  1.4329395806312862e+03  1.4328797398471656e+03  1.4329395806312866e+03  1.4331187053978092e+03  1.4334159266533222e+03  1.4338292826542727e+03  1.4343560630585332e+03  1.4349928439238397e+03  1.4357355311838105e+03  1.4365794115446190e+03  1.4375192095986813e+03  1.4385491498501453e+03  1.4396630222923145e+03  1.4408542501688112e+03  1.4421159585853723e+03  1.4434410427129781e+03  1.4448222344292151e+03  1.4462521663764639e+03  1.4477234325649479e+03  1.4492286448085949e+03  1.4507604844450386e+03  1.4523117489515810e+03  1.4538753932215227e+03  1.4554445654055578e+03  1.4570126373481046e+03  1.4585732297564186e+03  1.4601202323302703e+03  1.4616478191517795e+03  1.4631504596892971e+03  1.4646229258072669e+03  1.4660602951973333e+03  1.4674579516564293e+03  1.4688115826371616e+03  1.4701171744863923e+03  1.4713710057714752e+03  1.4725696390718160e+03  1.4737099115878841e+03  1.4747889248919116e+03  1.4758040341153876e+03  1.4767528368390981e+03  1.4776331619226141e+03  1.4784430584823886e+03  1.4791807852014097e+03  1.4798448001289250e+03  1.4804337511063525e+03  1.4809464669350639e+03  1.4813819493833539e+03  1.4817393661134456e+03  1.4820180445947296e+03  1.4822174670563934e+03  1.4823372665209158e+03  1.4823772239495001e+03  1.4729721446839803e+03  1.4729318077776813e+03  1.4728108671542116e+03  1.4726095336991802e+03  1.4723281608827706e+03  1.4719672477384129e+03  1.4715274430072218e+03  1.4710095504213007e+03  1.4704145350895658e+03  1.4697435309390646e+03  1.4689978491524921e+03  1.4681789875285560e+03  1.4672886406757652e+03  1.4663287109318894e+03  1.4653013198806857e+03  1.4642088203143251e+03  1.4630538084643629e+03  1.4618391362960881e+03  1.4605679236309632e+03  1.4592435698298289e+03  1.4578697647363797e+03  1.4564504985465394e+03  1.4549900702360464e+03  1.4534930941467653e+03  1.4519645043035946e+03  1.4504095560099868e+03  1.4488338242530444e+03  1.4472431984410694e+03  1.4456438729996901e+03  1.4440423333696467e+03  1.4424453369823570e+03  1.4408598888406734e+03  1.4392932114035684e+03  1.4377527085660390e+03  1.4362459236398151e+03  1.4347804913758350e+03  1.4333640842243049e+03  1.4320043531993417e+03  1.4307088638983148e+03  1.4294850284151528e+03  1.4283400340749408e+03  1.4272807700957953e+03  1.4263137534443345e+03  1.4254450552837645e+03  1.4246802295097500e+03  1.4240242449208417e+03  1.4234814225709820e+03  1.4230553797975049e+03  1.4227489823078515e+03  1.4225643055437838e+03  1.4225026063281316e+03  1.4225643055437840e+03  1.4227489823078522e+03  1.4230553797975058e+03  1.4234814225709829e+03  1.4240242449208431e+03  1.4246802295097514e+03  1.4254450552837661e+03  1.4263137534443370e+03  1.4272807700957978e+03  1.4283400340749436e+03  1.4294850284151562e+03  1.4307088638983184e+03  1.4320043531993458e+03  1.4333640842243085e+03  1.4347804913758389e+03  1.4362459236398197e+03  1.4377527085660436e+03  1.4392932114035737e+03  1.4408598888406796e+03  1.4424453369823634e+03  1.4440423333696535e+03  1.4456438729996971e+03  1.4472431984410759e+03  1.4488338242530515e+03  1.4504095560099943e+03  1.4519645043036026e+03  1.4534930941467742e+03  1.4549900702360555e+03  1.4564504985465489e+03  1.4578697647363892e+03  1.4592435698298389e+03  1.4605679236309727e+03  1.4618391362960981e+03  1.4630538084643724e+03  1.4642088203143360e+03  1.4653013198806968e+03  1.4663287109319010e+03  1.4672886406757773e+03  1.4681789875285688e+03  1.4689978491525044e+03  1.4697435309390776e+03  1.4704145350895785e+03  1.4710095504213143e+03  1.4715274430072352e+03  1.4719672477384263e+03  1.4723281608827849e+03  1.4726095336991941e+03  1.4728108671542263e+03  1.4729318077776959e+03  1.4729721446839958e+03  1.4636477614541204e+03  1.4636069750792715e+03  1.4634846827244432e+03  1.4632810853258400e+03  1.4629965198645339e+03  1.4626314624875968e+03  1.4621865328572278e+03  1.4616624997060771e+03  1.4610602875689056e+03  1.4603809846512033e+03  1.4596258517841748e+03  1.4587963324022985e+03  1.4578940634641285e+03  1.4569208872189272e+03  1.4558788637008829e+03  1.4547702838087960e+03  1.4535976828022729e+03  1.4523638540154545e+03  1.4510718625564209e+03  1.4497250587247472e+03  1.4483270908418422e+03  1.4468819171492466e+03  1.4453938163900291e+03  1.4438673966489550e+03  1.4423076019898347e+03  1.4407197163952512e+03  1.4391093644869393e+03  1.4374825084870251e+03  1.4358454408738864e+03  1.4342047721946331e+03  1.4325674135220170e+03  1.4309405530900765e+03  1.4293316267123464e+03  1.4277482816812415e+03  1.4261983339682524e+03  1.4246897186919778e+03  1.4232304339933685e+03  1.4218284786518834e+03  1.4204917839877903e+03  1.4192281408180577e+03  1.4180451224577441e+03  1.4169500049757387e+03  1.4159496861120742e+03  1.4150506044322915e+03  1.4142586604208884e+03  1.4135791412904869e+03  1.4130166512972385e+03  1.4125750493007192e+03  1.4122573951858951e+03  1.4120659065776210e+03  1.4120019270304381e+03  1.4120659065776210e+03  1.4122573951858956e+03  1.4125750493007197e+03  1.4130166512972396e+03  1.4135791412904878e+03  1.4142586604208900e+03  1.4150506044322929e+03  1.4159496861120765e+03  1.4169500049757410e+03  1.4180451224577473e+03  1.4192281408180609e+03  1.4204917839877937e+03  1.4218284786518877e+03  1.4232304339933726e+03  1.4246897186919812e+03  1.4261983339682563e+03  1.4277482816812460e+03  1.4293316267123516e+03  1.4309405530900819e+03  1.4325674135220233e+03  1.4342047721946399e+03  1.4358454408738937e+03  1.4374825084870317e+03  1.4391093644869454e+03  1.4407197163952578e+03  1.4423076019898422e+03  1.4438673966489639e+03  1.4453938163900384e+03  1.4468819171492557e+03  1.4483270908418515e+03  1.4497250587247563e+03  1.4510718625564300e+03  1.4523638540154641e+03  1.4535976828022817e+03  1.4547702838088073e+03  1.4558788637008934e+03  1.4569208872189386e+03  1.4578940634641408e+03  1.4587963324023112e+03  1.4596258517841864e+03  1.4603809846512158e+03  1.4610602875689190e+03  1.4616624997060908e+03  1.4621865328572419e+03  1.4626314624876104e+03  1.4629965198645475e+03  1.4632810853258538e+03  1.4634846827244578e+03  1.4636069750792867e+03  1.4636477614541352e+03  1.4544049719841385e+03  1.4543636694801962e+03  1.4542398247848462e+03  1.4540336270050916e+03  1.4537453935092853e+03  1.4533755732053778e+03  1.4529247511163021e+03  1.4523936542369674e+03  1.4517831586508178e+03  1.4510942978759761e+03  1.4503282724011131e+03  1.4494864603590720e+03  1.4485704292715836e+03  1.4475819487808380e+03  1.4465230042627277e+03  1.4453958111922439e+03  1.4442028301033067e+03  1.4429467819532808e+03  1.4416306636664453e+03  1.4402577635909954e+03  1.4388316765609327e+03  1.437356318