<?xml version="1.0"?>
<VTKFile type="UnstructuredGrid"  version="0.1"  >
<UnstructuredGrid>
<Piece  NumberOfPoints="1111" NumberOfCells="2000">
<Points>
<DataArray  type="Float64"  NumberOfComponents="3"  format="ascii">0 0 0  0.05 0 0  0.1 0 0  0.15 0 0  0.2 0 0  0.25 0 0  0.3 0 0  0.35 0 0  0.4 0 0  0.45 0 0  0.5 0 0  0.55 0 0  0.6 0 0  0.65 0 0  0.7 0 0  0.75 0 0  0.8 0 0  0.85 0 0  0.9 0 0  0.95 0 0  1 0 0  1.05 0 0  1.1 0 0  1.15 0 0  1.2 0 0  1.25 0 0  1.3 0 0  1.35 0 0  1.4 0 0  1.45 0 0  1.5 0 0  1.55 0 0  1.6 0 0  1.65 0 0  1.7 0 0  1.75 0 0  1.8 0 0  1.85 0 0  1.9 0 0  1.95 0 0  2 0 0  2.05 0 0  2.1 0 0  2.15 0 0  2.2 0 0  2.25 0 0  2.3 0 0  2.35 0 0  2.4 0 0  2.45 0 0  2.5 0 0  2.55 0 0  2.6 0 0  2.65 0 0  2.7 0 0  2.75 0 0  2.8 0 0  2.85 0 0  2.9 0 0  2.95 0 0  3 0 0  3.05 0 0  3.1 0 0  3.15 0 0  3.2 0 0  3.25 0 0  3.3 0 0  3.35 0 0  3.4 0 0  3.45 0 0  3.5 0 0  3.55 0 0  3.6 0 0  3.65 0 0  3.7 0 0  3.75 0 0  3.8 0 0  3.85 0 0  3.9 0 0  3.95 0 0  4 0 0  4.05 0 0  4.1 0 0  4.15 0 0  4.2 0 0  4.25 0 0  4.3 0 0  4.35 0 0  4.4 0 0  4.45 0 0  4.5 0 0  4.55 0 0  4.6 0 0  4.65 0 0  4.7 0 0  4.75 0 0  4.8 0 0  4.85 0 0  4.9 0 0  4.95 0 0  5 0 0  0 0.3 0  0.05 0.3 0  0.1 0.3 0  0.15 0.3 0  0.2 0.3 0  0.25 0.3 0  0.3 0.3 0  0.35 0.3 0  0.4 0.3 0  0.45 0.3 0  0.5 0.3 0  0.55 0.3 0  0.6 0.3 0  0.65 0.3 0  0.7 0.3 0  0.75 0.3 0  0.8 0.3 0  0.85 0.3 0  0.9 0.3 0  0.95 0.3 0  1 0.3 0  1.05 0.3 0  1.1 0.3 0  1.15 0.3 0  1.2 0.3 0  1.25 0.3 0  1.3 0.3 0  1.35 0.3 0  1.4 0.3 0  1.45 0.3 0  1.5 0.3 0  1.55 0.3 0  1.6 0.3 0  1.65 0.3 0  1.7 0.3 0  1.75 0.3 0  1.8 0.3 0  1.85 0.3 0  1.9 0.3 0  1.95 0.3 0  2 0.3 0  2.05 0.3 0  2.1 0.3 0  2.15 0.3 0  2.2 0.3 0  2.25 0.3 0  2.3 0.3 0  2.35 0.3 0  2.4 0.3 0  2.45 0.3 0  2.5 0.3 0  2.55 0.3 0  2.6 0.3 0  2.65 0.3 0  2.7 0.3 0  2.75 0.3 0  2.8 0.3 0  2.85 0.3 0  2.9 0.3 0  2.95 0.3 0  3 0.3 0  3.05 0.3 0  3.1 0.3 0  3.15 0.3 0  3.2 0.3 0  3.25 0.3 0  3.3 0.3 0  3.35 0.3 0  3.4 0.3 0  3.45 0.3 0  3.5 0.3 0  3.55 0.3 0  3.6 0.3 0  3.65 0.3 0  3.7 0.3 0  3.75 0.3 0  3.8 0.3 0  3.85 0.3 0  3.9 0.3 0  3.95 0.3 0  4 0.3 0  4.05 0.3 0  4.1 0.3 0  4.15 0.3 0  4.2 0.3 0  4.25 0.3 0  4.3 0.3 0  4.35 0.3 0  4.4 0.3 0  4.45 0.3 0  4.5 0.3 0  4.55 0.3 0  4.6 0.3 0  4.65 0.3 0  4.7 0.3 0  4.75 0.3 0  4.8 0.3 0  4.85 0.3 0  4.9 0.3 0  4.95 0.3 0  5 0.3 0  0 0.6 0  0.05 0.6 0  0.1 0.6 0  0.15 0.6 0  0.2 0.6 0  0.25 0.6 0  0.3 0.6 0  0.35 0.6 0  0.4 0.6 0  0.45 0.6 0  0.5 0.6 0  0.55 0.6 0  0.6 0.6 0  0.65 0.6 0  0.7 0.6 0  0.75 0.6 0  0.8 0.6 0  0.85 0.6 0  0.9 0.6 0  0.95 0.6 0  1 0.6 0  1.05 0.6 0  1.1 0.6 0  1.15 0.6 0  1.2 0.6 0  1.25 0.6 0  1.3 0.6 0  1.35 0.6 0  1.4 0.6 0  1.45 0.6 0  1.5 0.6 0  1.55 0.6 0  1.6 0.6 0  1.65 0.6 0  1.7 0.6 0  1.75 0.6 0  1.8 0.6 0  1.85 0.6 0  1.9 0.6 0  1.95 0.6 0  2 0.6 0  2.05 0.6 0  2.1 0.6 0  2.15 0.6 0  2.2 0.6 0  2.25 0.6 0  2.3 0.6 0  2.35 0.6 0  2.4 0.6 0  2.45 0.6 0  2.5 0.6 0  2.55 0.6 0  2.6 0.6 0  2.65 0.6 0  2.7 0.6 0  2.75 0.6 0  2.8 0.6 0  2.85 0.6 0  2.9 0.6 0  2.95 0.6 0  3 0.6 0  3.05 0.6 0  3.1 0.6 0  3.15 0.6 0  3.2 0.6 0  3.25 0.6 0  3.3 0.6 0  3.35 0.6 0  3.4 0.6 0  3.45 0.6 0  3.5 0.6 0  3.55 0.6 0  3.6 0.6 0  3.65 0.6 0  3.7 0.6 0  3.75 0.6 0  3.8 0.6 0  3.85 0.6 0  3.9 0.6 0  3.95 0.6 0  4 0.6 0  4.05 0.6 0  4.1 0.6 0  4.15 0.6 0  4.2 0.6 0  4.25 0.6 0  4.3 0.6 0  4.35 0.6 0  4.4 0.6 0  4.45 0.6 0  4.5 0.6 0  4.55 0.6 0  4.6 0.6 0  4.65 0.6 0  4.7 0.6 0  4.75 0.6 0  4.8 0.6 0  4.85 0.6 0  4.9 0.6 0  4.95 0.6 0  5 0.6 0  0 0.9 0  0.05 0.9 0  0.1 0.9 0  0.15 0.9 0  0.2 0.9 0  0.25 0.9 0  0.3 0.9 0  0.35 0.9 0  0.4 0.9 0  0.45 0.9 0  0.5 0.9 0  0.55 0.9 0  0.6 0.9 0  0.65 0.9 0  0.7 0.9 0  0.75 0.9 0  0.8 0.9 0  0.85 0.9 0  0.9 0.9 0  0.95 0.9 0  1 0.9 0  1.05 0.9 0  1.1 0.9 0  1.15 0.9 0  1.2 0.9 0  1.25 0.9 0  1.3 0.9 0  1.35 0.9 0  1.4 0.9 0  1.45 0.9 0  1.5 0.9 0  1.55 0.9 0  1.6 0.9 0  1.65 0.9 0  1.7 0.9 0  1.75 0.9 0  1.8 0.9 0  1.85 0.9 0  1.9 0.9 0  1.95 0.9 0  2 0.9 0  2.05 0.9 0  2.1 0.9 0  2.15 0.9 0  2.2 0.9 0  2.25 0.9 0  2.3 0.9 0  2.35 0.9 0  2.4 0.9 0  2.45 0.9 0  2.5 0.9 0  2.55 0.9 0  2.6 0.9 0  2.65 0.9 0  2.7 0.9 0  2.75 0.9 0  2.8 0.9 0  2.85 0.9 0  2.9 0.9 0  2.95 0.9 0  3 0.9 0  3.05 0.9 0  3.1 0.9 0  3.15 0.9 0  3.2 0.9 0  3.25 0.9 0  3.3 0.9 0  3.35 0.9 0  3.4 0.9 0  3.45 0.9 0  3.5 0.9 0  3.55 0.9 0  3.6 0.9 0  3.65 0.9 0  3.7 0.9 0  3.75 0.9 0  3.8 0.9 0  3.85 0.9 0  3.9 0.9 0  3.95 0.9 0  4 0.9 0  4.05 0.9 0  4.1 0.9 0  4.15 0.9 0  4.2 0.9 0  4.25 0.9 0  4.3 0.9 0  4.35 0.9 0  4.4 0.9 0  4.45 0.9 0  4.5 0.9 0  4.55 0.9 0  4.6 0.9 0  4.65 0.9 0  4.7 0.9 0  4.75 0.9 0  4.8 0.9 0  4.85 0.9 0  4.9 0.9 0  4.95 0.9 0  5 0.9 0  0 1.2 0  0.05 1.2 0  0.1 1.2 0  0.15 1.2 0  0.2 1.2 0  0.25 1.2 0  0.3 1.2 0  0.35 1.2 0  0.4 1.2 0  0.45 1.2 0  0.5 1.2 0  0.55 1.2 0  0.6 1.2 0  0.65 1.2 0  0.7 1.2 0  0.75 1.2 0  0.8 1.2 0  0.85 1.2 0  0.9 1.2 0  0.95 1.2 0  1 1.2 0  1.05 1.2 0  1.1 1.2 0  1.15 1.2 0  1.2 1.2 0  1.25 1.2 0  1.3 1.2 0  1.35 1.2 0  1.4 1.2 0  1.45 1.2 0  1.5 1.2 0  1.55 1.2 0  1.6 1.2 0  1.65 1.2 0  1.7 1.2 0  1.75 1.2 0  1.8 1.2 0  1.85 1.2 0  1.9 1.2 0  1.95 1.2 0  2 1.2 0  2.05 1.2 0  2.1 1.2 0  2.15 1.2 0  2.2 1.2 0  2.25 1.2 0  2.3 1.2 0  2.35 1.2 0  2.4 1.2 0  2.45 1.2 0  2.5 1.2 0  2.55 1.2 0  2.6 1.2 0  2.65 1.2 0  2.7 1.2 0  2.75 1.2 0  2.8 1.2 0  2.85 1.2 0  2.9 1.2 0  2.95 1.2 0  3 1.2 0  3.05 1.2 0  3.1 1.2 0  3.15 1.2 0  3.2 1.2 0  3.25 1.2 0  3.3 1.2 0  3.35 1.2 0  3.4 1.2 0  3.45 1.2 0  3.5 1.2 0  3.55 1.2 0  3.6 1.2 0  3.65 1.2 0  3.7 1.2 0  3.75 1.2 0  3.8 1.2 0  3.85 1.2 0  3.9 1.2 0  3.95 1.2 0  4 1.2 0  4.05 1.2 0  4.1 1.2 0  4.15 1.2 0  4.2 1.2 0  4.25 1.2 0  4.3 1.2 0  4.35 1.2 0  4.4 1.2 0  4.45 1.2 0  4.5 1.2 0  4.55 1.2 0  4.6 1.2 0  4.65 1.2 0  4.7 1.2 0  4.75 1.2 0  4.8 1.2 0  4.85 1.2 0  4.9 1.2 0  4.95 1.2 0  5 1.2 0  0 1.5 0  0.05 1.5 0  0.1 1.5 0  0.15 1.5 0  0.2 1.5 0  0.25 1.5 0  0.3 1.5 0  0.35 1.5 0  0.4 1.5 0  0.45 1.5 0  0.5 1.5 0  0.55 1.5 0  0.6 1.5 0  0.65 1.5 0  0.7 1.5 0  0.75 1.5 0  0.8 1.5 0  0.85 1.5 0  0.9 1.5 0  0.95 1.5 0  1 1.5 0  1.05 1.5 0  1.1 1.5 0  1.15 1.5 0  1.2 1.5 0  1.25 1.5 0  1.3 1.5 0  1.35 1.5 0  1.4 1.5 0  1.45 1.5 0  1.5 1.5 0  1.55 1.5 0  1.6 1.5 0  1.65 1.5 0  1.7 1.5 0  1.75 1.5 0  1.8 1.5 0  1.85 1.5 0  1.9 1.5 0  1.95 1.5 0  2 1.5 0  2.05 1.5 0  2.1 1.5 0  2.15 1.5 0  2.2 1.5 0  2.25 1.5 0  2.3 1.5 0  2.35 1.5 0  2.4 1.5 0  2.45 1.5 0  2.5 1.5 0  2.55 1.5 0  2.6 1.5 0  2.65 1.5 0  2.7 1.5 0  2.75 1.5 0  2.8 1.5 0  2.85 1.5 0  2.9 1.5 0  2.95 1.5 0  3 1.5 0  3.05 1.5 0  3.1 1.5 0  3.15 1.5 0  3.2 1.5 0  3.25 1.5 0  3.3 1.5 0  3.35 1.5 0  3.4 1.5 0  3.45 1.5 0  3.5 1.5 0  3.55 1.5 0  3.6 1.5 0  3.65 1.5 0  3.7 1.5 0  3.75 1.5 0  3.8 1.5 0  3.85 1.5 0  3.9 1.5 0  3.95 1.5 0  4 1.5 0  4.05 1.5 0  4.1 1.5 0  4.15 1.5 0  4.2 1.5 0  4.25 1.5 0  4.3 1.5 0  4.35 1.5 0  4.4 1.5 0  4.45 1.5 0  4.5 1.5 0  4.55 1.5 0  4.6 1.5 0  4.65 1.5 0  4.7 1.5 0  4.75 1.5 0  4.8 1.5 0  4.85 1.5 0  4.9 1.5 0  4.95 1.5 0  5 1.5 0  0 1.8 0  0.05 1.8 0  0.1 1.8 0  0.15 1.8 0  0.2 1.8 0  0.25 1.8 0  0.3 1.8 0  0.35 1.8 0  0.4 1.8 0  0.45 1.8 0  0.5 1.8 0  0.55 1.8 0  0.6 1.8 0  0.65 1.8 0  0.7 1.8 0  0.75 1.8 0  0.8 1.8 0  0.85 1.8 0  0.9 1.8 0  0.95 1.8 0  1 1.8 0  1.05 1.8 0  1.1 1.8 0  1.15 1.8 0  1.2 1.8 0  1.25 1.8 0  1.3 1.8 0  1.35 1.8 0  1.4 1.8 0  1.45 1.8 0  1.5 1.8 0  1.55 1.8 0  1.6 1.8 0  1.65 1.8 0  1.7 1.8 0  1.75 1.8 0  1.8 1.8 0  1.85 1.8 0  1.9 1.8 0  1.95 1.8 0  2 1.8 0  2.05 1.8 0  2.1 1.8 0  2.15 1.8 0  2.2 1.8 0  2.25 1.8 0  2.3 1.8 0  2.35 1.8 0  2.4 1.8 0  2.45 1.8 0  2.5 1.8 0  2.55 1.8 0  2.6 1.8 0  2.65 1.8 0  2.7 1.8 0  2.75 1.8 0  2.8 1.8 0  2.85 1.8 0  2.9 1.8 0  2.95 1.8 0  3 1.8 0  3.05 1.8 0  3.1 1.8 0  3.15 1.8 0  3.2 1.8 0  3.25 1.8 0  3.3 1.8 0  3.35 1.8 0  3.4 1.8 0  3.45 1.8 0  3.5 1.8 0  3.55 1.8 0  3.6 1.8 0  3.65 1.8 0  3.7 1.8 0  3.75 1.8 0  3.8 1.8 0  3.85 1.8 0  3.9 1.8 0  3.95 1.8 0  4 1.8 0  4.05 1.8 0  4.1 1.8 0  4.15 1.8 0  4.2 1.8 0  4.25 1.8 0  4.3 1.8 0  4.35 1.8 0  4.4 1.8 0  4.45 1.8 0  4.5 1.8 0  4.55 1.8 0  4.6 1.8 0  4.65 1.8 0  4.7 1.8 0  4.75 1.8 0  4.8 1.8 0  4.85 1.8 0  4.9 1.8 0  4.95 1.8 0  5 1.8 0  0 2.1 0  0.05 2.1 0  0.1 2.1 0  0.15 2.1 0  0.2 2.1 0  0.25 2.1 0  0.3 2.1 0  0.35 2.1 0  0.4 2.1 0  0.45 2.1 0  0.5 2.1 0  0.55 2.1 0  0.6 2.1 0  0.65 2.1 0  0.7 2.1 0  0.75 2.1 0  0.8 2.1 0  0.85 2.1 0  0.9 2.1 0  0.95 2.1 0  1 2.1 0  1.05 2.1 0  1.1 2.1 0  1.15 2.1 0  1.2 2.1 0  1.25 2.1 0  1.3 2.1 0  1.35 2.1 0  1.4 2.1 0  1.45 2.1 0  1.5 2.1 0  1.55 2.1 0  1.6 2.1 0  1.65 2.1 0  1.7 2.1 0  1.75 2.1 0  1.8 2.1 0  1.85 2.1 0  1.9 2.1 0  1.95 2.1 0  2 2.1 0  2.05 2.1 0  2.1 2.1 0  2.15 2.1 0  2.2 2.1 0  2.25 2.1 0  2.3 2.1 0  2.35 2.1 0  2.4 2.1 0  2.45 2.1 0  2.5 2.1 0  2.55 2.1 0  2.6 2.1 0  2.65 2.1 0  2.7 2.1 0  2.75 2.1 0  2.8 2.1 0  2.85 2.1 0  2.9 2.1 0  2.95 2.1 0  3 2.1 0  3.05 2.1 0  3.1 2.1 0  3.15 2.1 0  3.2 2.1 0  3.25 2.1 0  3.3 2.1 0  3.35 2.1 0  3.4 2.1 0  3.45 2.1 0  3.5 2.1 0  3.55 2.1 0  3.6 2.1 0  3.65 2.1 0  3.7 2.1 0  3.75 2.1 0  3.8 2.1 0  3.85 2.1 0  3.9 2.1 0  3.95 2.1 0  4 2.1 0  4.05 2.1 0  4.1 2.1 0  4.15 2.1 0  4.2 2.1 0  4.25 2.1 0  4.3 2.1 0  4.35 2.1 0  4.4 2.1 0  4.45 2.1 0  4.5 2.1 0  4.55 2.1 0  4.6 2.1 0  4.65 2.1 0  4.7 2.1 0  4.75 2.1 0  4.8 2.1 0  4.85 2.1 0  4.9 2.1 0  4.95 2.1 0  5 2.1 0  0 2.4 0  0.05 2.4 0  0.1 2.4 0  0.15 2.4 0  0.2 2.4 0  0.25 2.4 0  0.3 2.4 0  0.35 2.4 0  0.4 2.4 0  0.45 2.4 0  0.5 2.4 0  0.55 2.4 0  0.6 2.4 0  0.65 2.4 0  0.7 2.4 0  0.75 2.4 0  0.8 2.4 0  0.85 2.4 0  0.9 2.4 0  0.95 2.4 0  1 2.4 0  1.05 2.4 0  1.1 2.4 0  1.15 2.4 0  1.2 2.4 0  1.25 2.4 0  1.3 2.4 0  1.35 2.4 0  1.4 2.4 0  1.45 2.4 0  1.5 2.4 0  1.55 2.4 0  1.6 2.4 0  1.65 2.4 0  1.7 2.4 0  1.75 2.4 0  1.8 2.4 0  1.85 2.4 0  1.9 2.4 0  1.95 2.4 0  2 2.4 0  2.05 2.4 0  2.1 2.4 0  2.15 2.4 0  2.2 2.4 0  2.25 2.4 0  2.3 2.4 0  2.35 2.4 0  2.4 2.4 0  2.45 2.4 0  2.5 2.4 0  2.55 2.4 0  2.6 2.4 0  2.65 2.4 0  2.7 2.4 0  2.75 2.4 0  2.8 2.4 0  2.85 2.4 0  2.9 2.4 0  2.95 2.4 0  3 2.4 0  3.05 2.4 0  3.1 2.4 0  3.15 2.4 0  3.2 2.4 0  3.25 2.4 0  3.3 2.4 0  3.35 2.4 0  3.4 2.4 0  3.45 
[...]
<PointData  Vectors="f_51834"> 
<DataArray  type="Float64"  Name="f_51834"  NumberOfComponents="3" format="ascii">0.0000000000000000e+00 -3.1418816373815151e+01 5.7615077870579555e+13  3.5126829786767386e-02 -3.1413115434501432e+01 5.7615077870579555e+13  7.0232869212526430e-02 -3.1398872276797622e+01 5.7615077870579555e+13  1.0530028286744665e-01 -3.1376041735343531e+01 5.7615077870579555e+13  1.4031120139506145e-01 -3.1344595746294043e+01 5.7615077870579555e+13  1.7524777244549386e-01 -3.1304520192401998e+01 5.7615077870579555e+13  2.1009220582115043e-01 -3.1255812543515393e+01 5.7615077870579555e+13  2.4482681415579940e-01 -3.1198480083928587e+01 5.7615077870579555e+13  2.7943405010094741e-01 -3.1132538572911379e+01 5.7615077870579555e+13  3.1389654072336204e-01 -3.1058011225069581e+01 5.7615077870579555e+13  3.4819711961886607e-01 -3.0974927926853233e+01 5.7615077870579555e+13  3.8231885710137253e-01 -3.0883324627366949e+01 5.7615077870579555e+13  4.1624508871875882e-01 -3.0783242857731885e+01 5.7615077870579555e+13  4.4995944226846207e-01 -3.0674729345124515e+01 5.7615077870579555e+13  4.8344586342816159e-01 -3.0557835696390626e+01 5.7615077870579555e+13  5.1668864007512560e-01 -3.0432618132622860e+01 5.7615077870579555e+13  5.4967242533767058e-01 -3.0299137260897520e+01 5.7615077870579555e+13  5.8238225940075106e-01 -3.0157457872933435e+01 5.7615077870579555e+13  6.1480359007273444e-01 -3.0007648763086085e+01 5.7615077870579555e+13  6.4692229211029395e-01 -2.9849782560063645e+01 5.7615077870579555e+13  6.7872468529185626e-01 -2.9683935568223308e+01 5.7615077870579555e+13  7.1019755122625206e-01 -2.9510187615406203e+01 5.7615077870579555e+13  7.4132814888148013e-01 -2.9328621905092898e+01 5.7615077870579555e+13  7.7210422881827312e-01 -2.9139324871279776e+01 5.7615077870579555e+13  8.0251404611409305e-01 -2.8942386034941446e+01 5.7615077870579555e+13  8.3254637196496561e-01 -2.8737897861294872e+01 5.7615077870579555e+13  8.6219050395499375e-01 -2.8525955617345549e+01 5.7615077870579555e+13  8.9143627498626843e-01 -2.8306657229396151e+01 5.7615077870579555e+13  9.2027406086511887e-01 -2.8080103140349713e+01 5.7615077870579555e+13  9.4869478654408401e-01 -2.7846396166754133e+01 5.7615077870579555e+13  9.7668993102257662e-01 -2.7605641355621540e+01 5.7615077870579555e+13  1.0042515309128810e+00 -2.7357945841121627e+01 5.7615077870579547e+13  1.0313721826818127e+00 -2.7103418701296974e+01 5.7615077870579547e+13  1.0580450435820452e+00 -2.6842170814984922e+01 5.7615077870579547e+13  1.0842638312907236e+00 -2.6574314719156924e+01 5.7615077870579547e+13  1.1100228222765169e+00 -2.6299964466905337e+01 5.7615077870579547e+13  1.1353168489196810e+00 -2.6019235486320124e+01 5.7615077870579547e+13  1.1601412954129868e+00 -2.5732244440506054e+01 5.7615077870579547e+13  1.1844920924745070e+00 -2.5439109088994726e+01 5.7615077870579547e+13  1.2083657109062171e+00 -2.5139948150806802e+01 5.7615077870579547e+13  1.2317591540351485e+00 -2.4834881169417923e+01 5.7615077870579547e+13  1.2546699490764381e+00 -2.4524028379878004e+01 5.7615077870579547e+13  1.2770961374599936e+00 -2.4207510578327934e+01 5.7615077870579547e+13  1.2990362641646915e+00 -2.3885448994150664e+01 5.7615077870579547e+13  1.3204893661059949e+00 -2.3557965164985298e+01 5.7615077870579547e+13  1.3414549596246241e+00 -2.3225180814823570e+01 5.7615077870579547e+13  1.3619330271254624e+00 -2.2887217735397797e+01 5.7615077870579547e+13  1.3819240029171778e+00 -2.2544197671058605e+01 5.7615077870579547e+13  1.4014287583041489e+00 -2.2196242207329192e+01 5.7615077870579547e+13  1.4204485859831546e+00 -2.1843472663310969e+01 5.7615077870579547e+13  1.4389851837979437e+00 -2.1486009988103149e+01 5.7615077870579547e+13  1.4570406379052583e+00 -2.1123974661386093e+01 5.7615077870579547e+13  1.4746174054061187e+00 -2.0757486598305601e+01 5.7615077870579547e+13  1.4917182964962239e+00 -2.0386665058782302e+01 5.7615077870579547e+13  1.5083464561891682e+00 -2.0011628561357149e+01 5.7615077870579547e+13  1.5245053456658313e+00 -1.9632494801671314e+01 5.7615077870579547e+13  1.5401987233027898e+00 -1.9249380575665445e+01 5.7615077870579547e+13  1.5554306254318986e+00 -1.8862401707570722e+01 5.7615077870579547e+13  1.5702053468823498e+00 -1.8471672982751180e+01 5.7615077870579547e+13  1.5845274213555169e+00 -1.8077308085444422e+01 5.7615077870579547e+13  1.5984016016817395e+00 -1.7679419541435553e+01 5.7615077870579547e+13  1.6118328400069408e+00 -1.7278118665687131e+01 5.7615077870579547e+13  1.6248262679555618e+00 -1.6873515514936361e+01 5.7615077870579547e+13  1.6373871768147847e+00 -1.6465718845259442e+01 5.7615077870579547e+13  1.6495209977833996e+00 -1.6054836074591957e+01 5.7615077870579547e+13  1.6612332823269431e+00 -1.5640973250183933e+01 5.7615077870579547e+13  1.6725296826789304e+00 -1.5224235020957837e+01 5.7615077870579547e+13  1.6834159325260867e+00 -1.4804724614728514e+01 5.7615077870579547e+13  1.6938978279135015e+00 -1.4382543820234778e+01 5.7615077870579547e+13  1.7039812084035355e+00 -1.3957792973923869e+01 5.7615077870579547e+13  1.7136719385201293e+00 -1.3530570951422142e+01 5.7615077870579547e+13  1.7229758895078744e+00 -1.3100975163617775e+01 5.7615077870579547e+13  1.7318989214327729e+00 -1.2669101557274756e+01 5.7615077870579547e+13  1.7404468656490457e+00 -1.2235044620091291e+01 5.7615077870579547e+13  1.7486255076535502e+00 -1.1798897390110527e+01 5.7615077870579547e+13  1.7564405703463284e+00 -1.1360751469387306e+01 5.7615077870579547e+13  1.7638976977124170e+00 -1.0920697041811080e+01 5.7615077870579547e+13  1.7710024389361898e+00 -1.0478822894983264e+01 5.7615077870579547e+13  1.7777602329550490e+00 -1.0035216446046407e+01 5.7615077870579547e+13  1.7841763934539847e+00 -9.5899637713636618e+00 5.7615077870579547e+13  1.7902560942961332e+00 -9.1431496399504049e+00 5.7615077870579547e+13  1.7960043553765803e+00 -8.6948575505657644e+00 5.7615077870579547e+13  1.8014260288767743e+00 -8.2451697723816704e+00 5.7615077870579547e+13  1.8065257858843333e+00 -7.7941673891614602e+00 5.7615077870579547e+13  1.8113081033268239e+00 -7.3419303469009467e+00 5.7615077870579547e+13  1.8157772511469801e+00 -6.8885375049140398e+00 5.7615077870579547e+13  1.8199372796191180e+00 -6.4340666903859782e+00 5.7615077870579547e+13  1.8237920066698834e+00 -5.9785947564731394e+00 5.7615077870579547e+13  1.8273450050177835e+00 -5.5221976441057974e+00 5.7615077870579547e+13  1.8305995888809885e+00 -5.0649504477561269e+00 5.7615077870579547e+13  1.8335587999158742e+00 -4.6069274855788853e+00 5.7615077870579547e+13  1.8362253919318579e+00 -4.1482023745317811e+00 5.7615077870579547e+13  1.8386018137706732e+00 -3.6888481113557834e+00 5.7615077870579547e+13  1.8406901895257914e+00 -3.2289371606716633e+00 5.7615077870579547e+13  1.8424922949905562e+00 -2.7685415519661425e+00 5.7615077870579547e+13  1.8440095288348304e+00 -2.3077329879529480e+00 5.7615077870579547e+13  1.8452428764829105e+00 -1.8465829677762746e+00 5.7615077870579547e+13  1.8461928639500433e+00 -1.3851629298792785e+00 5.7615077870579547e+13  1.8468594979226995e+00 -9.2354442123333635e-01 5.7615077870579547e+13  1.8472421870452962e+00 -4.6179930221448684e-01 5.7615077870579547e+13  1.8473396375753839e+00 0.0000000000000000e+00 5.7615077870579547e+13  0.0000000000000000e+00 -3.1413318769904556e+01 5.7615077870579555e+13  3.5116976614752847e-02 -3.1408878296980113e+01 5.7615077870579555e+13  7.0215486430809437e-02 -3.1395592507689877e+01 5.7615077870579555e+13  1.0527715109203654e-01 -3.1373492479258154e+01 5.7615077870579555e+13  1.4028369411118316e-01 -3.1342606784821132e+01 5.7615077870579555e+13  1.7521695695905237e-01 -3.1302963453474856e+01 5.7615077870579555e+13  2.1005891841915136e-01 -3.1254591376939295e+01 5.7615077870579555e+13  2.4479171616200518e-01 -3.1197521312859887e+01 5.7615077870579555e+13  2.7939766975947677e-01 -3.1131786593711684e+01 5.7615077870579555e+13  3.1385930455345851e-01 -3.1057423620462330e+01 5.7615077870579555e+13  3.4815937593497953e-01 -3.0974472198507296e+01 5.7615077870579555e+13  3.8228089369348078e-01 -3.0882975757677073e+01 5.7615077870579555e+13  4.1620714617218985e-01 -3.0782981486708465e+01 5.7615077870579555e+13  4.4992172402175895e-01 -3.0674540404291125e+01 5.7615077870579555e+13  4.8340854338611566e-01 -3.0557707382790948e+01 5.7615077870579555e+13  5.1665186838582688e-01 -3.0432541136391503e+01 5.7615077870579555e+13  5.4963633278807245e-01 -3.0299104182232565e+01 5.7615077870579555e+13  5.8234696077069148e-01 -3.0157462780832351e+01 5.7615077870579555e+13  6.1476918670220571e-01 -3.0007686860419678e+01 5.7615077870579555e+13  6.4688887387135674e-01 -2.9849849928600147e+01 5.7615077870579555e+13  6.7869233210930635e-01 -2.9684028973911467e+01 5.7615077870579555e+13  7.1016633425581266e-01 -2.9510304359195306e+01 5.7615077870579555e+13  7.4129813142782752e-01 -2.9328759708260300e+01 5.7615077870579555e+13  7.7207546705534769e-01 -2.9139481786984867e+01 5.7615077870579555e+13  8.0248658965520014e-01 -2.8942560379774193e+01 5.7615077870579555e+13  8.3252026431890691e-01 -2.8738088162117467e+01 5.7615077870579555e+13  8.6216578289593904e-01 -2.8526160569870942e+01 5.7615077870579555e+13  8.9141297285861554e-01 -2.8306875665806064e+01 5.7615077870579555e+13  9.2025220483966230e-01 -2.8080334003900003e+01 5.7615077870579555e+13  9.4867439883805627e-01 -2.7846638491801389e+01 5.7615077870579555e+13  9.7667102909324210e-01 -2.7605894251871803e+01 5.7615077870579555e+13  1.0042341276321443e+00 -2.7358208481179844e+01 5.7615077870579547e+13  1.0313562864975898e+00 -2.7103690310806634e+01 5.7615077870579547e+13  1.0580306586708150e+00 -2.6842450664807792e+01 5.7615077870579547e+13  1.0842509577046402e+00 -2.6574602119165377e+01 5.7615077870579547e+13  1.1100114560876533e+00 -2.6300258761053552e+01 5.7615077870579547e+13  1.1353069823633339e+00 -2.6019536048732682e+01 5.7615077870579547e+13  1.1601329170314738e+00 -2.5732550672377940e+01 5.7615077870579547e+13  1.1844851872624838e+00 -2.5439420416139995e+01 5.7615077870579547e+13  1.2083602604582302e+00 -2.5140264021726523e+01 5.7615077870579547e+13  1.2317551366958901e+00 -2.4835201053784207e+01 5.7615077870579547e+13  1.2546673400939621e+00 -2.4524351767351369e+01 5.7615077870579547e+13  1.2770949091420054e+00 -2.4207836977641385e+01 5.7615077870579547e+13  1.2990363860378937e+00 -2.3885777932406636e+01 5.7615077870579547e+13  1.3204908050783792e+00 -2.3558296187121694e+01 5.7615077870579547e+13  1.3414576801505240e+00 -2.3225513483213245e+01 5.7615077870579547e+13  1.3619369913731332e+00 -2.2887551629552277e+01 5.7615077870579547e+13  1.3819291709386325e+00 -2.2544532387412115e+01 5.7615077870579547e+13  1.4014350882069588e+00 -2.2196577359083253e+01 5.7615077870579547e+13  1.4204560341039179e+00 -2.1843807880323283e+01 5.7615077870579547e+13  1.4389937048771289e+00 -2.1486344916807269e+01 5.7615077870579547e+13  1.4570501852631532e+00 -2.1124308964730798e+01 5.7615077870579547e+13  1.4746279311196395e+00 -2.0757819955704665e+01 5.7615077870579547e+13  1.4917297515763868e+00 -2.0386997166066976e+01 5.7615077870579547e+13  1.5083587907590799e+00 -2.0011959130725042e+01 5.7615077870579547e+13  1.5245185091391282e+00 -1.9632823561626324e+01 5.7615077870579547e+13  1.5402126645625389e+00 -1.9249707270944391e+01 5.7615077870579547e+13  1.5554452930100828e+00 -1.8862726099052981e+01 5.7615077870579547e+13  1.5702206891401909e+00 -1.8471994847348313e+01 5.7615077870579547e+13  1.5845433866650382e+00 -1.8077627215967158e+01 5.7615077870579547e+13  1.5984181386091723e+00 -1.7679735746435970e+01 5.7615077870579547e+13  1.6118498974988009e+00 -1.7278431769274018e+01 5.7615077870579547e+13  1.6248437955285111e+00 -1.6873825356562026e+01 5.7615077870579547e+13  1.6374051247507455e+00 -1.6466025279476149e+01 5.7615077870579547e+13  1.6495393173318247e+00 -1.6055138970776230e+01 5.7615077870579547e+13  1.6612519259166896e+00 -1.5641272492226644e+01 5.7615077870579547e+13  1.6725486041428719e+00 -1.5224530506917723e+01 5.7615077870579547e+13  1.6834350873424677e+00 -1.4805016256446152e+01 5.7615077870579547e+13  1.6939171734691441e+00 -1.4382831542903258e+01 5.7615077870579547e+13  1.7040007042854184e+00 -1.3958076715611311e+01 5.7615077870579547e+13  1.7136915468436853e+00 -1.3530850662539642e+01 5.7615077870579547e+13  1.7229955752926953e+00 -1.3101250806324311e+01 5.7615077870579547e+13  1.7319186530394712e+00 -1.2669373104807834e+01 5.7615077870579547e+13  1.7404666152949861e+00 -1.2235312056008320e+01 5.7615077870579547e+13  1.7486452520303755e+00 -1.1799160707420954e+01 5.7615077870579547e+13  1.7564602913690206e+00 -1.1361010669548683e+01 5.7615077870579547e+13  1.7639173834386239e+00 -1.0920952133553152e+01 5.7615077870579547e+13  1.7710220847064122e+00 -1.0479073892911737e+01 5.7615077870579547e+13  1.7777798428199993e+00 -1.0035463368961224e+01 5.7615077870579547e+13  1.7841959819762925e+00 -9.5902066402037160e+00 5.7615077870579547e+13  1.7902756888413365e+00 -9.1433884752453647e+00 5.7615077870579547e+13  1.7960239990453886e+00 -8.6950923692328832e+00 5.7615077870579547e+13  1.8014457842800911e+00 -8.2454005836468696e+00 5.7615077870579547e+13  1.8065457400288432e+00 -7.7943941893033823e+00 5.7615077870579547e+13  1.8113283739679165e+00 -7.3421531124058577e+00 5.7615077870579547e+13  1.8157979950853786e+00 -6.8887561834765920e+00 5.7615077870579547e+13  1.8199587035785800e+00 -6.4342811889798419e+00 5.7615077870579547e+13  1.8238143816104206e+00 -5.9788049254237334e+00 5.7615077870579547e+13  1.8273686850319610e+00 -5.5224032556934075e+00 5.7615077870579547e+13  1.8306250362171652e+00 -5.0651511673179233e+00 5.7615077870579547e+13  1.8335866182087257e+00 -4.6071228323017062e+00 5.7615077870579547e+13  1.8362563704476491e+00 -4.1483916680491681e+00 5.7615077870579547e+13  1.8386369864613266e+00 -3.6890303987641664e+00 5.7615077870579547e+13  1.8407309140258405e+00 -3.2291111164964956e+00 5.7615077870579547e+13  1.8425403585129714e+00 -2.7687053407085958e+00 5.7615077870579547e+13  1.8440672904010513e+00 -2.3078840748095377e+00 5.7615077870579547e+13  1.8453134582993833e+00 -1.8467178574979723e+00 5.7615077870579547e+13  1.8462804093469098e+00 -1.3852768058954188e+00 5.7615077870579547e+13  1.8469695195502833e+00 -9.2363064623193136e-01 5.7615077870579547e+13  1.8473820375976187e+00 -4.6184872611892153e-01 5.7615077870579547e+13  1.8475191470229588e+00 0.0000000000000000e+00 5.7615077870579547e+13  0.0000000000000000e+00 -3.1411492109045874e+01 5.7615077870579555e+13  3.5113749273151487e-02 -3.1407092708183644e+01 5.7615077870579555e+13  7.0209173587282084e-02 -3.1393897556009733e+01 5.7615077870579555e+13  1.0526797965082273e-01 -3.1371915520032257e+01 5.7615077870579555e+13  1.4027193685603739e-01 -3.1341160501962495e+01 5.7615077870579555e+13  1.7520290667364713e-01 -3.1301651065083959e+01 5.7615077870579555e+13  2.1004287119261500e-01 -3.1253410199587908e+01 5.7615077870579555e+13  2.4477396098021850e-01 -3.1196465175689639e+01 5.7615077870579555e+13  2.7937848235044543e-01 -3.1130847450481358e+01 5.7615077870579555e+13  3.1383894407032270e-01 -3.1056592605662118e+01 5.7615077870579555e+13  3.4813808349529662e-01 -3.0973740300997555e+01 5.7615077870579555e+13  3.8225889210010872e-01 -3.0882334233649196e+01 5.7615077870579555e+13  4.1618464035647312e-01 -3.0782422097112637e+01 5.7615077870579555e+13  4.4989890190027870e-01 -3.0674055535933640e+01 5.7615077870579555e+13  4.8338557692693263e-01 -3.0557290093994883e+01 5.7615077870579555e+13  5.1662891475241524e-01 -3.0432185155236418e+01 5.7615077870579555e+13  5.4961353547861480e-01 -3.0298803876367050e+01 5.7615077870579555e+13  5.8232445070390626e-01 -3.0157213111563770e+01 5.7615077870579555e+13  6.1474708322324301e-01 -3.0007483329426275e+01 5.7615077870579555e+13  6.4686728566594409e-01 -2.9849688522611743e+01 5.7615077870579555e+13  6.7867135802366263e-01 -2.9683906110660260e+01 5.7615077870579555e+13  7.1014606402556668e-01 -2.9510216836560463e+01 5.7615077870579555e+13  7.4127864632246154e-01 -2.9328704657615795e+01 5.7615077870579555e+13  7.7205684044635114e-01 -2.9139456631165682e+01 5.7615077870579555e+13  8.0246888751674239e-01 -2.8942562795700820e+01 5.7615077870579555e+13  8.3250354566979712e-01 -2.8738116047892166e+01 5.7615077870579555e+13  8.6215010019121130e-01 -2.8526212016032019e+01 5.7615077870579555e+13  8.9139837233842156e-01 -2.8306948930364566e+01 5.7615077870579555e+13  9.2023872684240327e-01 -2.8080427490763444e+01 5.7615077870579555e+13  9.4866207808389724e-01 -2.7846750732195080e+01 5.7615077870579555e+13  9.7665989494339012e-01 -2.7606023888389796e+01 5.7615077870579555e+13  1.0042242043285454e+00 -2.7358354254126809e+01 5.7615077870579547e+13  1.0313475933870373e+00 -2.7103851046524991e+01 5.7615077870579547e+13  1.0580232104168623e+00 -2.6842625265717846e+01 5.7615077870579547e+13  1.0842447644901756e+00 -2.6574789555278414e+01 5.7615077870579547e+13  1.1100065238105228e+00 -2.6300458062747989e+01 5.7615077870579547e+13  1.1353033128269874e+00 -2.6019746300610581e+01 5.7615077870579547e+13  1.1601305081322493e+00 -2.5732771008043827e+01 5.7615077870579547e+13  1.1844840331748383e+00 -2.5439650013765441e+01 5.7615077870579547e+13  1.2083603518189583e+00 -2.5140502100283033e+01 5.7615077870579547e+13  1.2317564607881462e+00 -2.4835446869843452e+01 5.7615077870579547e+13  1.2546698810317150e+00 -2.4524604612366090e+01 5.7615077870579547e+13  1.2770986480553910e+00 -2.4208096175632729e+01 5.7615077870579547e+13  1.2990413012598010e+00 -2.3886042837994214e+01 5.7615077870579547e+13  1.3204968723325006e+00 -2.3558566183841872e+01 5.7615077870579547e+13  1.3414648727410154e+00 -2.3225787982078899e+01 5.7615077870579547e+13  1.3619452803759657e+00 -2.2887830067814015e+01 5.7615077870579547e+13  1.3819385253946730e+00 -2.2544814227486661e+01 5.7615077870579547e+13  1.4014454753167904e+00 -2.2196862087619554e+01 5.7615077870579547e+13  1.4204674194243994e+00 -2.1844095007381114e+01 5.7615077870579547e+13  1.4390060525196986e+00 -2.1486633975126701e+01 5.7615077870579547e+13  1.4570634580938997e+00 -2.1124599509073807e+01 5.7615077870579547e+13  1.4746420909612030e+00 -2.0758111562252928e+01 5.7615077870579547e+13  1.4917447594118016e+00 -2.0387289431861987e+01 5.7615077870579547e+13  1.5083746069377419e+00 -2.0012251673138536e+01 5.7615077870579547e+13  1.5245350935851518e+00 -1.9633116017850615e+01 5.7615077870579547e+13  1.5402299769858785e+00 -1.9249999297493527e+01 5.7615077870579547e+13  1.5554632931209162e+00 -1.8863017371266647e+01 5.7615077870579547e+13  1.5702393368672130e+00 -1.8472285058891291e+01 5.7615077870579547e+13  1.5845626423784911e+00 -1.8077916078317891e+01 5.7615077870579547e+13  1.5984379633496426e+00 -1.7680022988358093e+01 5.7615077870579547e+13  1.6118702532130540e+00 -1.7278717136265197e+01 5.7615077870579547e+13  1.6248646453139188e+00 -1.6874108610274416e+01 5.7615077870579547e+13  1.6374264331101824e+00 -1.6466306197102789e+01 5.7615077870579547e+13  1.6495610504412888e+00 -1.6055417344397352e+01 5.7615077870579547e+13  1.6612740519083438e+00 -1.5641548128109415e+01 5.7615077870579547e+13  1.6725710934067037e+00 -1.5224803224762150e+01 5.7615077870579547e+13  1.6834579128503522e+00 -1.4805285888568838e+01 5.7615077870579547e+13  1.6939403111257560e+00 -1.4383097933349328e+01 5.7615077870579547e+13  1.7040241333112149e+00 -1.3958339719183016e+01 5.7615077870579547e+13  1.7137152501960322e+00 -1.3531110143727954e+01 5.7615077870579547e+13  1.7230195401321899e+00 -1.3101506638126988e+01 5.7615077870579547e+13  1.7319428712495810e+00 -1.2669625167413990e+01 5.7615077870579547e+13  1.7404910840642942e+00 -1.2235560235325321e+01 5.7615077870579547e+13  1.7486699745079468e+00 -1.1799404893414255e+01 5.7615077870579547e+13  1.7564852774046549e+00 -1.1361250754359039e+01 5.7615077870579547e+13  1.7639426504209295e+00 -1.0921188009348093e+01 5.7615077870579547e+13  1.7710476585126040e+00 -1.0479305449419209e+01 5.7615077870579547e+13  1.777805