<?xml version="1.0"?>
<VTKFile type="UnstructuredGrid"  version="0.1"  >
<UnstructuredGrid>
<Piece  NumberOfPoints="44" NumberOfCells="60">
<Points>
<DataArray  type="Float64"  NumberOfComponents="3"  format="ascii">0 0 0  0.1 0 0  0.2 0 0  0.3 0 0  0.4 0 0  0.5 0 0  0.6 0 0  0.7 0 0  0.8 0 0  0.9 0 0  1 0 0  0 0.2 0  0.1 0.2 0  0.2 0.2 0  0.3 0.2 0  0.4 0.2 0  0.5 0.2 0  0.6 0.2 0  0.7 0.2 0  0.8 0.2 0  0.9 0.2 0  1 0.2 0  0 0 0.2  0.1 0 0.2  0.2 0 0.2  0.3 0 0.2  0.4 0 0.2  0.5 0 0.2  0.6 0 0.2  0.7 0 0.2  0.8 0 0.2  0.9 0 0.2  1 0 0.2  0 0.2 0.2  0.1 0.2 0.2  0.2 0.2 0.2  0.3 0.2 0.2  0.4 0.2 0.2  0.5 0.2 0.2  0.6 0.2 0.2  0.7 0.2 0.2  0.8 0.2 0.2  0.9 0.2 0.2  1 0.2 0.2  </DataArray>
</Points>
<Cells>
<DataArray  type="UInt32"  Name="connectivity"  format="ascii">0 1 12 34  0 1 23 34  0 22 23 34  0 11 12 34  0 22 33 34  0 11 33 34  1 2 13 35  1 2 24 35  1 23 24 35  1 12 13 35  1 23 34 35  1 12 34 35  2 3 14 36  2 3 25 36  2 24 25 36  2 13 14 36  2 24 35 36  2 13 35 36  3 4 15 37  3 4 26 37  3 25 26 37  3 14 15 37  3 25 36 37  3 14 36 37  4 5 16 38  4 5 27 38  4 26 27 38  4 15 16 38  4 26 37 38  4 15 37 38  5 6 17 39  5 6 28 39  5 27 28 39  5 16 17 39  5 27 38 39  5 16 38 39  6 7 18 40  6 7 29 40  6 28 29 40  6 17 18 40  6 28 39 40  6 17 39 40  7 8 19 41  7 8 30 41  7 29 30 41  7 18 19 41  7 29 40 41  7 18 40 41  8 9 20 42  8 9 31 42  8 30 31 42  8 19 20 42  8 30 41 42  8 19 41 42  9 10 21 43  9 10 32 43  9 31 32 43  9 20 21 43  9 31 42 43  9 20 42 43  </DataArray>
<DataArray  type="UInt32"  Name="offsets"  format="ascii">4 8 12 16 20 24 28 32 36 40 44 48 52 56 60 64 68 72 76 80 84 88 92 96 100 104 108 112 116 120 124 128 132 136 140 144 148 152 156 160 164 168 172 176 180 184 188 192 196 200 204 208 212 216 220 224 228 232 236 240 </DataArray>
<DataArray  type="UInt8"  Name="types"  format="ascii">10 10 10 10 10 10 10 10 10 10 10 10 10 10 10 10 10 10 10 10 10 10 10 10 10 10 10 10 10 10 10 10 10 10 10 10 10 10 10 10 10 10 10 10 10 10 10 10 10 10 10 10 10 10 10 10 10 10 10 10 </DataArray>
</Cells>
<PointData  Vectors="f_76611"> 
<DataArray  type="Float64"  Name="f_76611"  NumberOfComponents="3" format="ascii">0.0000000000000000e+00 0.0000000000000000e+00 0.0000000000000000e+00  7.1668877581877144e-01 1.0320547422000312e+00 7.1917957387257286e-02  1.2647796548946775e+00 2.7382994585760612e+00 6.3977881993744670e-02  1.6514966924903547e+00 4.9481492970700058e+00 1.4135694293599961e-02  1.8802743782736315e+00 7.4916689169073409e+00 -5.8931871632806693e-02  1.9526896171607899e+00 1.0197025179316064e+01 -1.3831058972333785e-01  1.8696852418025736e+00 1.2891722967309098e+01 -2.0729095958139865e-01  1.6323043531423549e+00 1.5402781987904865e+01 -2.4919862097465661e-01  1.2423163001841042e+00 1.7555740548179823e+01 -2.4697558624997781e-01  7.0183053497929593e-01 1.9168213103329251e+01 -1.8026159344944234e-01  0.0000000000000000e+00 2.0000000000000000e+01 0.0000000000000000e+00  0.0000000000000000e+00 0.0000000000000000e+00 0.0000000000000000e+00  -8.9162340034515297e-01 1.0083694945874337e+00 7.3826435114417582e-02  -1.5606510126738105e+00 2.6835625202193594e+00 1.4318152006721901e-01  -2.0248888497453819e+00 4.8693756074190002e+00 1.6409670399969373e-01  -2.2938977436796679e+00 7.3903360219755792e+00 1.4424464494722206e-01  -2.3715912639902692e+00 1.0073199595324860e+01 9.8598416375188722e-02  -2.2599349467539693e+00 1.2745500783148685e+01 4.3738050527803565e-02  -1.9606758484764448e+00 1.5234887665866641e+01 -3.1067993509699466e-03  -1.4766505694611405e+00 1.7369570314259402e+01 -2.4192331401643830e-02  -8.1446001356003606e-01 1.8985250410725548e+01 -5.3684450777181968e-03  0.0000000000000000e+00 2.0000000000000000e+01 0.0000000000000000e+00  0.0000000000000000e+00 0.0000000000000000e+00 0.0000000000000000e+00  8.1530554935792199e-01 1.0149039784245804e+00 3.6425693545088208e-03  1.4777312145854347e+00 2.6307931451352315e+00 2.0588172019094558e-02  1.9615681436385661e+00 4.7657063105052533e+00 -2.1118179633419980e-03  2.2603708060288494e+00 7.2552711133411147e+00 -5.0032267938201549e-02  2.3714465916161114e+00 9.9276434251827848e+00 -1.0527463885688335e-01  2.2931890270456750e+00 1.2610448212514410e+01 -1.5056325109879262e-01  2.0237721047638870e+00 1.5131231282037310e+01 -1.6937743190940818e-01  1.5594217596498385e+00 1.7316797116899568e+01 -1.4690607681996823e-01  8.9071862238716926e-01 1.8991762008011356e+01 -7.5724808614693953e-02  0.0000000000000000e+00 2.0000000000000000e+01 0.0000000000000000e+00  0.0000000000000000e+00 0.0000000000000000e+00 0.0000000000000000e+00  -7.0139506321457956e-01 8.3180672015568358e-01 1.7867364712658967e-01  -1.2417671219192568e+00 2.4445288325124110e+00 2.4349254105760826e-01  -1.6318491623742253e+00 4.5977806727438670e+00 2.4404714147447046e-01  -1.8694576909135379e+00 7.1090726693253883e+00 2.0099564987416302e-01  -1.9527533273284541e+00 9.8038816778279703e+00 1.3156669739455934e-01  -1.8806229230446225e+00 1.2509202193287654e+01 5.2496095437090474e-02  -1.6520531917517167e+00 1.5052548825569293e+01 -1.9550423943208363e-02  -1.2653960721489186e+00 1.7262132930450289e+01 -6.7805055003376496e-02  -7.1714445033898488e-01 1.8968099796316576e+01 -7.3833313893540156e-02  0.0000000000000000e+00 2.0000000000000000e+01 0.0000000000000000e+00  </DataArray> 
</PointData> 
</Piece>
</UnstructuredGrid>
</VTKFile>