<?xml version="1.0"?>
<VTKFile type="UnstructuredGrid"  version="0.1"  >
<UnstructuredGrid>
<Piece  NumberOfPoints="44" NumberOfCells="60">
<Points>
<DataArray  type="Float64"  NumberOfComponents="3"  format="ascii">0 0 0  0.1 0 0  0.2 0 0  0.3 0 0  0.4 0 0  0.5 0 0  0.6 0 0  0.7 0 0  0.8 0 0  0.9 0 0  1 0 0  0 0.2 0  0.1 0.2 0  0.2 0.2 0  0.3 0.2 0  0.4 0.2 0  0.5 0.2 0  0.6 0.2 0  0.7 0.2 0  0.8 0.2 0  0.9 0.2 0  1 0.2 0  0 0 0.2  0.1 0 0.2  0.2 0 0.2  0.3 0 0.2  0.4 0 0.2  0.5 0 0.2  0.6 0 0.2  0.7 0 0.2  0.8 0 0.2  0.9 0 0.2  1 0 0.2  0 0.2 0.2  0.1 0.2 0.2  0.2 0.2 0.2  0.3 0.2 0.2  0.4 0.2 0.2  0.5 0.2 0.2  0.6 0.2 0.2  0.7 0.2 0.2  0.8 0.2 0.2  0.9 0.2 0.2  1 0.2 0.2  </DataArray>
</Points>
<Cells>
<DataArray  type="UInt32"  Name="connectivity"  format="ascii">0 1 12 34  0 1 23 34  0 22 23 34  0 11 12 34  0 22 33 34  0 11 33 34  1 2 13 35  1 2 24 35  1 23 24 35  1 12 13 35  1 23 34 35  1 12 34 35  2 3 14 36  2 3 25 36  2 24 25 36  2 13 14 36  2 24 35 36  2 13 35 36  3 4 15 37  3 4 26 37  3 25 26 37  3 14 15 37  3 25 36 37  3 14 36 37  4 5 16 38  4 5 27 38  4 26 27 38  4 15 16 38  4 26 37 38  4 15 37 38  5 6 17 39  5 6 28 39  5 27 28 39  5 16 17 39  5 27 38 39  5 16 38 39  6 7 18 40  6 7 29 40  6 28 29 40  6 17 18 40  6 28 39 40  6 17 39 40  7 8 19 41  7 8 30 41  7 29 30 41  7 18 19 41  7 29 40 41  7 18 40 41  8 9 20 42  8 9 31 42  8 30 31 42  8 19 20 42  8 30 41 42  8 19 41 42  9 10 21 43  9 10 32 43  9 31 32 43  9 20 21 43  9 31 42 43  9 20 42 43  </DataArray>
<DataArray  type="UInt32"  Name="offsets"  format="ascii">4 8 12 16 20 24 28 32 36 40 44 48 52 56 60 64 68 72 76 80 84 88 92 96 100 104 108 112 116 120 124 128 132 136 140 144 148 152 156 160 164 168 172 176 180 184 188 192 196 200 204 208 212 216 220 224 228 232 236 240 </DataArray>
<DataArray  type="UInt8"  Name="types"  format="ascii">10 10 10 10 10 10 10 10 10 10 10 10 10 10 10 10 10 10 10 10 10 10 10 10 10 10 10 10 10 10 10 10 10 10 10 10 10 10 10 10 10 10 10 10 10 10 10 10 10 10 10 10 10 10 10 10 10 10 10 10 </DataArray>
</Cells>
<PointData  Vectors="f_15018"> 
<DataArray  type="Float64"  Name="f_15018"  NumberOfComponents="3" format="ascii">0.0000000000000000e+00 0.0000000000000000e+00 0.0000000000000000e+00  -1.0415923975519685e+00 3.0704858156106213e-01 -1.8243089097930134e+00  -1.8656859422808114e+00 1.0743632674360870e+00 -4.8538765172340037e+00  -2.5039091237510140e+00 2.1708689227682019e+00 -8.8090117279129743e+00  -2.9829104238791171e+00 3.5149472533592396e+00 -1.3450708581812124e+01  -3.3266667829892067e+00 5.0386521890189435e+00 -1.8569549671491966e+01  -3.5579968169291769e+00 6.6849557345699226e+00 -2.3987810082306996e+01  -3.6992181649479492e+00 8.4076393825132403e+00 -2.9560286217536810e+01  -3.7724032810581938e+00 1.0171452495648262e+01 -3.5174467323009132e+01  -3.7994945631190631e+00 1.1952654895860265e+01 -4.0750477939057269e+01  -3.8029094516614914e+00 1.3740909955325632e+01 -4.6241166600239822e+01  0.0000000000000000e+00 0.0000000000000000e+00 0.0000000000000000e+00  -1.9416776892613352e+00 4.5137102895385195e-01 -1.8096312572860191e+00  -3.5392384278206297e+00 1.1795624034412056e+00 -4.6513241165926775e+00  -4.7956615979631101e+00 2.2391429453945189e+00 -8.4464220286470972e+00  -5.7468476898944711e+00 3.5555701423497892e+00 -1.2966220838225953e+01  -6.4334138730518209e+00 5.0587861925518700e+00 -1.7997039062576899e+01  -6.8975999556758198e+00 6.6906648372446327e+00 -2.3356252864108676e+01  -7.1824146427292668e+00 8.4045190854365934e+00 -2.8893925142598565e+01  -7.3312709239497700e+00 1.0164723962740496e+01 -3.4493087435308929e+01  -7.3879261205893343e+00 1.1946599563491544e+01 -4.0070385864973034e+01  -7.3969413837362072e+00 1.3736751613166554e+01 -4.5579179306902603e+01  0.0000000000000000e+00 0.0000000000000000e+00 0.0000000000000000e+00  1.9976009279980682e+00 3.0664370178328176e-01 -1.8293014310936020e+00  3.5634282675178222e+00 9.0196349033516510e-01 -4.8218216694821132e+00  4.7623795794539499e+00 1.8407229236219123e+00 -8.7588889394847786e+00  5.6525635049776879e+00 3.0600683388394234e+00 -1.3391820149250851e+01  6.2831128930480347e+00 4.4914362606581051e+00 -1.8507719472123316e+01  6.6996897069055930e+00 6.0739851975551034e+00 -2.3928225854261242e+01  6.9467023259553242e+00 7.7569713310314681e+00 -2.9508096281064237e+01  7.0681133683393167e+00 9.5002848690134130e+00 -3.5134777277599255e+01  7.1078565970860517e+00 1.1274472772502701e+01 -4.0727930572382569e+01  7.1104474414601082e+00 1.3059606756135491e+01 -4.6237052910838969e+01  0.0000000000000000e+00 0.0000000000000000e+00 0.0000000000000000e+00  9.7663895477250806e-01 4.9446362610521107e-02 -1.4297413994216674e+00  1.7416931845456127e+00 6.5491489724803853e-01 -4.2840674255494111e+00  2.3387623385376126e+00 1.6361960068200703e+00 -8.1350237758844255e+00  2.7878767864894392e+00 2.8993395932257680e+00 -1.2713062968446696e+01  3.1088504948402940e+00 4.3703009558049679e+00 -1.7798498291634964e+01  3.3225925014718816e+00 5.9871721514458951e+00 -2.3207511578509354e+01  3.4506189898893371e+00 7.6989849708785121e+00 -2.8789832405872609e+01  3.5147239137503932e+00 9.4654433610251036e+00 -3.4428274890583381e+01  3.5368080260311041e+00 1.1256622568680992e+01 -4.0038720309796858e+01  3.5386812816044455e+00 1.3052093477007102e+01 -4.5570323431129715e+01  </DataArray> 
</PointData> 
</Piece>
</UnstructuredGrid>
</VTKFile>