<?xml version="1.0"?>
<VTKFile type="UnstructuredGrid"  version="0.1"  >
<UnstructuredGrid>
<Piece  NumberOfPoints="44" NumberOfCells="60">
<Points>
<DataArray  type="Float64"  NumberOfComponents="3"  format="ascii">0 0 0  0.1 0 0  0.2 0 0  0.3 0 0  0.4 0 0  0.5 0 0  0.6 0 0  0.7 0 0  0.8 0 0  0.9 0 0  1 0 0  0 0.2 0  0.1 0.2 0  0.2 0.2 0  0.3 0.2 0  0.4 0.2 0  0.5 0.2 0  0.6 0.2 0  0.7 0.2 0  0.8 0.2 0  0.9 0.2 0  1 0.2 0  0 0 0.2  0.1 0 0.2  0.2 0 0.2  0.3 0 0.2  0.4 0 0.2  0.5 0 0.2  0.6 0 0.2  0.7 0 0.2  0.8 0 0.2  0.9 0 0.2  1 0 0.2  0 0.2 0.2  0.1 0.2 0.2  0.2 0.2 0.2  0.3 0.2 0.2  0.4 0.2 0.2  0.5 0.2 0.2  0.6 0.2 0.2  0.7 0.2 0.2  0.8 0.2 0.2  0.9 0.2 0.2  1 0.2 0.2  </DataArray>
</Points>
<Cells>
<DataArray  type="UInt32"  Name="connectivity"  format="ascii">0 1 12 34  0 1 23 34  0 22 23 34  0 11 12 34  0 22 33 34  0 11 33 34  1 2 13 35  1 2 24 35  1 23 24 35  1 12 13 35  1 23 34 35  1 12 34 35  2 3 14 36  2 3 25 36  2 24 25 36  2 13 14 36  2 24 35 36  2 13 35 36  3 4 15 37  3 4 26 37  3 25 26 37  3 14 15 37  3 25 36 37  3 14 36 37  4 5 16 38  4 5 27 38  4 26 27 38  4 15 16 38  4 26 37 38  4 15 37 38  5 6 17 39  5 6 28 39  5 27 28 39  5 16 17 39  5 27 38 39  5 16 38 39  6 7 18 40  6 7 29 40  6 28 29 40  6 17 18 40  6 28 39 40  6 17 39 40  7 8 19 41  7 8 30 41  7 29 30 41  7 18 19 41  7 29 40 41  7 18 40 41  8 9 20 42  8 9 31 42  8 30 31 42  8 19 20 42  8 30 41 42  8 19 41 42  9 10 21 43  9 10 32 43  9 31 32 43  9 20 21 43  9 31 42 43  9 20 42 43  </DataArray>
<DataArray  type="UInt32"  Name="offsets"  format="ascii">4 8 12 16 20 24 28 32 36 40 44 48 52 56 60 64 68 72 76 80 84 88 92 96 100 104 108 112 116 120 124 128 132 136 140 144 148 152 156 160 164 168 172 176 180 184 188 192 196 200 204 208 212 216 220 224 228 232 236 240 </DataArray>
<DataArray  type="UInt8"  Name="types"  format="ascii">10 10 10 10 10 10 10 10 10 10 10 10 10 10 10 10 10 10 10 10 10 10 10 10 10 10 10 10 10 10 10 10 10 10 10 10 10 10 10 10 10 10 10 10 10 10 10 10 10 10 10 10 10 10 10 10 10 10 10 10 </DataArray>
</Cells>
<PointData  Vectors="f_76307"> 
<DataArray  type="Float64"  Name="f_76307"  NumberOfComponents="3" format="ascii">0.0000000000000000e+00 0.0000000000000000e+00 0.0000000000000000e+00  0.0000000000000000e+00 0.0000000000000000e+00 0.0000000000000000e+00  0.0000000000000000e+00 0.0000000000000000e+00 0.0000000000000000e+00  0.0000000000000000e+00 0.0000000000000000e+00 0.0000000000000000e+00  0.0000000000000000e+00 0.0000000000000000e+00 0.0000000000000000e+00  0.0000000000000000e+00 0.0000000000000000e+00 0.0000000000000000e+00  0.0000000000000000e+00 0.0000000000000000e+00 0.0000000000000000e+00  0.0000000000000000e+00 0.0000000000000000e+00 0.0000000000000000e+00  0.0000000000000000e+00 0.0000000000000000e+00 0.0000000000000000e+00  0.0000000000000000e+00 0.0000000000000000e+00 0.0000000000000000e+00  0.0000000000000000e+00 0.0000000000000000e+00 0.0000000000000000e+00  0.0000000000000000e+00 0.0000000000000000e+00 0.0000000000000000e+00  -3.2699440612785325e-05 -2.9935193239874549e-05 -1.8613863227777723e-04  -3.3817478823623585e-05 -5.1816275841482332e-05 -2.8914443624160428e-04  -2.5703106028484076e-05 -6.5559245583559958e-05 -3.4712468265945894e-04  -1.6826246550863446e-05 -7.4095116259782469e-05 -3.7936571066729703e-04  -9.6373345721014869e-06 -7.9473322750506432e-05 -3.9737103433547613e-04  -4.2079372271445542e-06 -8.3135182837558756e-05 -4.0820001329025101e-04  2.6259824642660531e-07 -8.6320512694074627e-05 -4.1640986417192756e-04  4.8869155526787566e-06 -9.0724421166601466e-05 -4.2547205074815718e-04  1.0674748361436212e-05 -1.0058204399487390e-04 -4.3893982333826584e-04  1.7297672643806408e-05 -1.3217485757238801e-04 -4.5954958241489107e-04  0.0000000000000000e+00 0.0000000000000000e+00 0.0000000000000000e+00  0.0000000000000000e+00 0.0000000000000000e+00 0.0000000000000000e+00  0.0000000000000000e+00 0.0000000000000000e+00 0.0000000000000000e+00  0.0000000000000000e+00 0.0000000000000000e+00 0.0000000000000000e+00  0.0000000000000000e+00 0.0000000000000000e+00 0.0000000000000000e+00  0.0000000000000000e+00 0.0000000000000000e+00 0.0000000000000000e+00  0.0000000000000000e+00 0.0000000000000000e+00 0.0000000000000000e+00  0.0000000000000000e+00 0.0000000000000000e+00 0.0000000000000000e+00  0.0000000000000000e+00 0.0000000000000000e+00 0.0000000000000000e+00  0.0000000000000000e+00 0.0000000000000000e+00 0.0000000000000000e+00  0.0000000000000000e+00 0.0000000000000000e+00 0.0000000000000000e+00  0.0000000000000000e+00 0.0000000000000000e+00 0.0000000000000000e+00  1.4570192301468030e-05 2.0573083587522918e-05 -1.7649775037312403e-04  1.5858645952273580e-05 4.3560512381875186e-05 -2.7842042185651639e-04  1.3472791482583248e-05 5.9061989748503589e-05 -3.3424740857654627e-04  1.0729236693193359e-05 6.8064514722532653e-05 -3.6400311562632124e-04  8.7961133640410973e-06 7.2961088421342210e-05 -3.7986016317024179e-04  7.9621359664534224e-06 7.5603855306676152e-05 -3.8896974706190249e-04  8.1579214612710981e-06 7.7106905516900696e-05 -3.9557983712941479e-04  9.1212721731030534e-06 7.7876277806050649e-05 -4.0234402627003515e-04  1.0359343647380075e-05 7.7353360408729597e-05 -4.1089166900969918e-04  1.1103637380556310e-05 7.3387781203671813e-05 -4.2176884921776495e-04  </DataArray> 
</PointData> 
</Piece>
</UnstructuredGrid>
</VTKFile>