<?xml version="1.0"?>
<VTKFile type="UnstructuredGrid"  version="0.1"  >
<UnstructuredGrid>
<Piece  NumberOfPoints="44" NumberOfCells="60">
<Points>
<DataArray  type="Float64"  NumberOfComponents="3"  format="ascii">0 0 0  0.1 0 0  0.2 0 0  0.3 0 0  0.4 0 0  0.5 0 0  0.6 0 0  0.7 0 0  0.8 0 0  0.9 0 0  1 0 0  0 0.2 0  0.1 0.2 0  0.2 0.2 0  0.3 0.2 0  0.4 0.2 0  0.5 0.2 0  0.6 0.2 0  0.7 0.2 0  0.8 0.2 0  0.9 0.2 0  1 0.2 0  0 0 0.2  0.1 0 0.2  0.2 0 0.2  0.3 0 0.2  0.4 0 0.2  0.5 0 0.2  0.6 0 0.2  0.7 0 0.2  0.8 0 0.2  0.9 0 0.2  1 0 0.2  0 0.2 0.2  0.1 0.2 0.2  0.2 0.2 0.2  0.3 0.2 0.2  0.4 0.2 0.2  0.5 0.2 0.2  0.6 0.2 0.2  0.7 0.2 0.2  0.8 0.2 0.2  0.9 0.2 0.2  1 0.2 0.2  </DataArray>
</Points>
<Cells>
<DataArray  type="UInt32"  Name="connectivity"  format="ascii">0 1 12 34  0 1 23 34  0 22 23 34  0 11 12 34  0 22 33 34  0 11 33 34  1 2 13 35  1 2 24 35  1 23 24 35  1 12 13 35  1 23 34 35  1 12 34 35  2 3 14 36  2 3 25 36  2 24 25 36  2 13 14 36  2 24 35 36  2 13 35 36  3 4 15 37  3 4 26 37  3 25 26 37  3 14 15 37  3 25 36 37  3 14 36 37  4 5 16 38  4 5 27 38  4 26 27 38  4 15 16 38  4 26 37 38  4 15 37 38  5 6 17 39  5 6 28 39  5 27 28 39  5 16 17 39  5 27 38 39  5 16 38 39  6 7 18 40  6 7 29 40  6 28 29 40  6 17 18 40  6 28 39 40  6 17 39 40  7 8 19 41  7 8 30 41  7 29 30 41  7 18 19 41  7 29 40 41  7 18 40 41  8 9 20 42  8 9 31 42  8 30 31 42  8 19 20 42  8 30 41 42  8 19 41 42  9 10 21 43  9 10 32 43  9 31 32 43  9 20 21 43  9 31 42 43  9 20 42 43  </DataArray>
<DataArray  type="UInt32"  Name="offsets"  format="ascii">4 8 12 16 20 24 28 32 36 40 44 48 52 56 60 64 68 72 76 80 84 88 92 96 100 104 108 112 116 120 124 128 132 136 140 144 148 152 156 160 164 168 172 176 180 184 188 192 196 200 204 208 212 216 220 224 228 232 236 240 </DataArray>
<DataArray  type="UInt8"  Name="types"  format="ascii">10 10 10 10 10 10 10 10 10 10 10 10 10 10 10 10 10 10 10 10 10 10 10 10 10 10 10 10 10 10 10 10 10 10 10 10 10 10 10 10 10 10 10 10 10 10 10 10 10 10 10 10 10 10 10 10 10 10 10 10 </DataArray>
</Cells>
<PointData  Vectors="f_424"> 
<DataArray  type="Float64"  Name="f_424"  NumberOfComponents="3" format="ascii">0.0000000000000000e+00 0.0000000000000000e+00 0.0000000000000000e+00  -1.6638856190926018e-03 4.9049294179083361e-04 -2.9142314852923525e-03  -2.9803289812792527e-03 1.7162352514953454e-03 -7.7537963534089491e-03  -3.9998548302731867e-03 3.4678417296616637e-03 -1.4071903718710817e-02  -4.7650326260049820e-03 5.6149317146313715e-03 -2.1486754923022558e-02  -5.3141641900786062e-03 8.0489651581772265e-03 -2.9663817366600564e-02  -5.6837009855098680e-03 1.0678843026469521e-02 -3.8319185434995191e-02  -5.9092941932075878e-03 1.3430733837880576e-02 -4.7220904500857502e-02  -6.0262033243741134e-03 1.6248326670364639e-02 -5.6189244924934718e-02  -6.0694801327780606e-03 1.9093697916709694e-02 -6.5096610126289575e-02  -6.0749352262963159e-03 2.1950335391893984e-02 -7.3867678275143484e-02  0.0000000000000000e+00 0.0000000000000000e+00 0.0000000000000000e+00  -3.1017215483407907e-03 7.2103998235439567e-04 -2.8907847560479534e-03  -5.6537355077006879e-03 1.8842849895226912e-03 -7.4302302181991683e-03  -7.6608012747014570e-03 3.5769056635695205e-03 -1.3492686946720601e-02  -9.1802678752307878e-03 5.6798245085459883e-03 -2.0712812840616532e-02  -1.0277018966536459e-02 8.0811281031180054e-03 -2.8749263678237845e-02  -1.1018530280632302e-02 1.0687962998793340e-02 -3.7310308089630456e-02  -1.1473505819056339e-02 1.3425749337758142e-02 -4.6156429940253284e-02  -1.1711295405670567e-02 1.6237578215240411e-02 -5.5100778650653250e-02  -1.1801798914679456e-02 1.9084024861807575e-02 -6.4010201062257271e-02  -1.1816200293508326e-02 2.1943692672790022e-02 -7.2810190586106410e-02  0.0000000000000000e+00 0.0000000000000000e+00 0.0000000000000000e+00  3.1910557955240702e-03 4.8984616898287809e-04 -2.9222067589354658e-03  5.6923774241498743e-03 1.4408362465417968e-03 -7.7025905263292541e-03  7.6076351109488020e-03 2.9404519546675930e-03 -1.3991835366589104e-02  9.0296541613062130e-03 4.8882880812131388e-03 -2.1392683944490169e-02  1.0036921554389833e-02 7.1748183077605544e-03 -2.9565047080069178e-02  1.0702379723491360e-02 9.7028517532829189e-03 -3.8224002962078639e-02  1.1096968571813616e-02 1.2391328004842609e-02 -4.7137533995310267e-02  1.1290915923864723e-02 1.5176173912162007e-02 -5.6125842296484429e-02  1.1354403509722128e-02 1.8010339892176850e-02 -6.5060591968662249e-02  1.1358542238754168e-02 2.0861991623219653e-02 -7.3861106886324260e-02  0.0000000000000000e+00 0.0000000000000000e+00 0.0000000000000000e+00  1.5601261258346769e-03 7.8987799697317922e-05 -2.2839319479579343e-03  2.7822574832997013e-03 1.0461899317061321e-03 -6.8435581877786108e-03  3.7360420743412334e-03 2.6137316402876543e-03 -1.2995245648377680e-02  4.4534772947115633e-03 4.6315328965267875e-03 -2.0308407297838168e-02  4.9662148479876888e-03 6.9813114309983538e-03 -2.8432105897180451e-02  5.3076557531499700e-03 9.5641727658880155e-03 -3.7072702202091613e-02  5.5121709103663494e-03 1.2298698036547149e-02 -4.5990147613215022e-02  5.6145749420932790e-03 1.5120516551158321e-02 -5.4997244234158756e-02  5.6498530767270030e-03 1.7981825189586253e-02 -6.3959617108301697e-02  5.6528454977706789e-03 2.0849989579883561e-02 -7.2796043819696052e-02  </DataArray> 
</PointData> 
</Piece>
</UnstructuredGrid>
</VTKFile>