<?xml version="1.0"?>
<VTKFile type="UnstructuredGrid"  version="0.1"  >
<UnstructuredGrid>
<Piece  NumberOfPoints="44" NumberOfCells="60">
<Points>
<DataArray  type="Float64"  NumberOfComponents="3"  format="ascii">0 0 0  0.1 0 0  0.2 0 0  0.3 0 0  0.4 0 0  0.5 0 0  0.6 0 0  0.7 0 0  0.8 0 0  0.9 0 0  1 0 0  0 0.2 0  0.1 0.2 0  0.2 0.2 0  0.3 0.2 0  0.4 0.2 0  0.5 0.2 0  0.6 0.2 0  0.7 0.2 0  0.8 0.2 0  0.9 0.2 0  1 0.2 0  0 0 0.2  0.1 0 0.2  0.2 0 0.2  0.3 0 0.2  0.4 0 0.2  0.5 0 0.2  0.6 0 0.2  0.7 0 0.2  0.8 0 0.2  0.9 0 0.2  1 0 0.2  0 0.2 0.2  0.1 0.2 0.2  0.2 0.2 0.2  0.3 0.2 0.2  0.4 0.2 0.2  0.5 0.2 0.2  0.6 0.2 0.2  0.7 0.2 0.2  0.8 0.2 0.2  0.9 0.2 0.2  1 0.2 0.2  </DataArray>
</Points>
<Cells>
<DataArray  type="UInt32"  Name="connectivity"  format="ascii">0 1 12 34  0 1 23 34  0 22 23 34  0 11 12 34  0 22 33 34  0 11 33 34  1 2 13 35  1 2 24 35  1 23 24 35  1 12 13 35  1 23 34 35  1 12 34 35  2 3 14 36  2 3 25 36  2 24 25 36  2 13 14 36  2 24 35 36  2 13 35 36  3 4 15 37  3 4 26 37  3 25 26 37  3 14 15 37  3 25 36 37  3 14 36 37  4 5 16 38  4 5 27 38  4 26 27 38  4 15 16 38  4 26 37 38  4 15 37 38  5 6 17 39  5 6 28 39  5 27 28 39  5 16 17 39  5 27 38 39  5 16 38 39  6 7 18 40  6 7 29 40  6 28 29 40  6 17 18 40  6 28 39 40  6 17 39 40  7 8 19 41  7 8 30 41  7 29 30 41  7 18 19 41  7 29 40 41  7 18 40 41  8 9 20 42  8 9 31 42  8 30 31 42  8 19 20 42  8 30 41 42  8 19 41 42  9 10 21 43  9 10 32 43  9 31 32 43  9 20 21 43  9 31 42 43  9 20 42 43  </DataArray>
<DataArray  type="UInt32"  Name="offsets"  format="ascii">4 8 12 16 20 24 28 32 36 40 44 48 52 56 60 64 68 72 76 80 84 88 92 96 100 104 108 112 116 120 124 128 132 136 140 144 148 152 156 160 164 168 172 176 180 184 188 192 196 200 204 208 212 216 220 224 228 232 236 240 </DataArray>
<DataArray  type="UInt8"  Name="types"  format="ascii">10 10 10 10 10 10 10 10 10 10 10 10 10 10 10 10 10 10 10 10 10 10 10 10 10 10 10 10 10 10 10 10 10 10 10 10 10 10 10 10 10 10 10 10 10 10 10 10 10 10 10 10 10 10 10 10 10 10 10 10 </DataArray>
</Cells>
<PointData  Scalars="f_76345"> 
<DataArray  type="Float64"  Name="f_76345"  format="ascii">1.8425601640453315e-08  -4.4287022264363230e-08  -3.4123611520316590e-08  -3.4720907792600079e-08  -4.4120698775747725e-08  -4.9090312754489474e-08  -5.2505358834711253e-08  -5.5400516700672667e-08  -1.2114246215793524e-07  -6.0716140446601381e-08  -3.3651594851366907e-07  -2.3146070239712988e-09  1.8801441217806619e-04  2.9117557044036353e-04  3.4884956504216506e-04  3.8101221417447152e-04  3.9910225641343197e-04  4.1009445057768091e-04  4.1854884679222350e-04  4.2814400299219204e-04  4.4308774089347168e-04  4.7037235853457620e-04  1.2651369516687562e-07  5.1666812059689463e-07  9.0544517731279479e-07  1.0805823490019233e-06  1.2041404793451998e-06  1.2893870405909383e-06  1.3485435645965748e-06  1.3946993013180465e-06  1.4379648946909156e-06  1.7100253848902828e-06  1.5934028983285581e-06  2.9950793770713492e-07  1.7760954490051472e-04  2.8069715950189384e-04  3.3768474519161305e-04  3.6818214540268077e-04  3.8442900461154068e-04  3.9372460007061161e-04  4.0040568381701885e-04  4.0712861655976996e-04  4.1534600990087822e-04  4.2443710526197047e-04  </DataArray> 
</PointData> 
</Piece>
</UnstructuredGrid>
</VTKFile>