<?xml version="1.0"?>
<VTKFile type="UnstructuredGrid"  version="0.1"  >
<UnstructuredGrid>
<Piece  NumberOfPoints="44" NumberOfCells="60">
<Points>
<DataArray  type="Float64"  NumberOfComponents="3"  format="ascii">0 0 0  0.1 0 0  0.2 0 0  0.3 0 0  0.4 0 0  0.5 0 0  0.6 0 0  0.7 0 0  0.8 0 0  0.9 0 0  1 0 0  0 0.2 0  0.1 0.2 0  0.2 0.2 0  0.3 0.2 0  0.4 0.2 0  0.5 0.2 0  0.6 0.2 0  0.7 0.2 0  0.8 0.2 0  0.9 0.2 0  1 0.2 0  0 0 0.2  0.1 0 0.2  0.2 0 0.2  0.3 0 0.2  0.4 0 0.2  0.5 0 0.2  0.6 0 0.2  0.7 0 0.2  0.8 0 0.2  0.9 0 0.2  1 0 0.2  0 0.2 0.2  0.1 0.2 0.2  0.2 0.2 0.2  0.3 0.2 0.2  0.4 0.2 0.2  0.5 0.2 0.2  0.6 0.2 0.2  0.7 0.2 0.2  0.8 0.2 0.2  0.9 0.2 0.2  1 0.2 0.2  </DataArray>
</Points>
<Cells>
<DataArray  type="UInt32"  Name="connectivity"  format="ascii">0 1 12 34  0 1 23 34  0 22 23 34  0 11 12 34  0 22 33 34  0 11 33 34  1 2 13 35  1 2 24 35  1 23 24 35  1 12 13 35  1 23 34 35  1 12 34 35  2 3 14 36  2 3 25 36  2 24 25 36  2 13 14 36  2 24 35 36  2 13 35 36  3 4 15 37  3 4 26 37  3 25 26 37  3 14 15 37  3 25 36 37  3 14 36 37  4 5 16 38  4 5 27 38  4 26 27 38  4 15 16 38  4 26 37 38  4 15 37 38  5 6 17 39  5 6 28 39  5 27 28 39  5 16 17 39  5 27 38 39  5 16 38 39  6 7 18 40  6 7 29 40  6 28 29 40  6 17 18 40  6 28 39 40  6 17 39 40  7 8 19 41  7 8 30 41  7 29 30 41  7 18 19 41  7 29 40 41  7 18 40 41  8 9 20 42  8 9 31 42  8 30 31 42  8 19 20 42  8 30 41 42  8 19 41 42  9 10 21 43  9 10 32 43  9 31 32 43  9 20 21 43  9 31 42 43  9 20 42 43  </DataArray>
<DataArray  type="UInt32"  Name="offsets"  format="ascii">4 8 12 16 20 24 28 32 36 40 44 48 52 56 60 64 68 72 76 80 84 88 92 96 100 104 108 112 116 120 124 128 132 136 140 144 148 152 156 160 164 168 172 176 180 184 188 192 196 200 204 208 212 216 220 224 228 232 236 240 </DataArray>
<DataArray  type="UInt8"  Name="types"  format="ascii">10 10 10 10 10 10 10 10 10 10 10 10 10 10 10 10 10 10 10 10 10 10 10 10 10 10 10 10 10 10 10 10 10 10 10 10 10 10 10 10 10 10 10 10 10 10 10 10 10 10 10 10 10 10 10 10 10 10 10 10 </DataArray>
</Cells>
<PointData  Scalars="f_76649"> 
<DataArray  type="Float64"  Name="f_76649"  format="ascii">3.9768032949160891e-03  1.0193110690863976e+00  2.7626085861456877e+00  4.9842433066432532e+00  7.5290253098836093e+00  1.0231966615497379e+01  1.2921813202133769e+01  1.5426348890914761e+01  1.7571521482069432e+01  1.9175377234610753e+01  2.0000326229019567e+01  5.5764859018153173e-02  1.2937073870205360e+00  2.9898352038498683e+00  5.1418734397999586e+00  7.6141872268900803e+00  1.0244380943981787e+01  1.2864542897875779e+01  1.5306260422353283e+01  1.7401333644435201e+01  1.8990428883779842e+01  1.9998309883575626e+01  -2.2746732595009893e-03  1.1182493479479749e+00  2.8603832336646078e+00  5.0025778024494523e+00  7.4714191085195054e+00  1.0107691206083885e+01  1.2747414544962846e+01  1.5223594442535058e+01  1.7367368296123413e+01  1.9008511912958593e+01  1.9998294999473366e+01  3.9246913445431686e-02  9.9340920254443499e-01  2.5408196950449091e+00  4.6569271358481039e+00  7.1489029068734080e+00  9.8285455781065085e+00  1.2522296826327821e+01  1.5057053651616579e+01  1.7260846737032594e+01  1.8964415783392429e+01  1.9998335791297276e+01  </DataArray> 
</PointData> 
</Piece>
</UnstructuredGrid>
</VTKFile>