<?xml version="1.0"?>
<VTKFile type="UnstructuredGrid"  version="0.1"  >
<UnstructuredGrid>
<Piece  NumberOfPoints="44" NumberOfCells="60">
<Points>
<DataArray  type="Float64"  NumberOfComponents="3"  format="ascii">0 0 0  0.1 0 0  0.2 0 0  0.3 0 0  0.4 0 0  0.5 0 0  0.6 0 0  0.7 0 0  0.8 0 0  0.9 0 0  1 0 0  0 0.2 0  0.1 0.2 0  0.2 0.2 0  0.3 0.2 0  0.4 0.2 0  0.5 0.2 0  0.6 0.2 0  0.7 0.2 0  0.8 0.2 0  0.9 0.2 0  1 0.2 0  0 0 0.2  0.1 0 0.2  0.2 0 0.2  0.3 0 0.2  0.4 0 0.2  0.5 0 0.2  0.6 0 0.2  0.7 0 0.2  0.8 0 0.2  0.9 0 0.2  1 0 0.2  0 0.2 0.2  0.1 0.2 0.2  0.2 0.2 0.2  0.3 0.2 0.2  0.4 0.2 0.2  0.5 0.2 0.2  0.6 0.2 0.2  0.7 0.2 0.2  0.8 0.2 0.2  0.9 0.2 0.2  1 0.2 0.2  </DataArray>
</Points>
<Cells>
<DataArray  type="UInt32"  Name="connectivity"  format="ascii">0 1 12 34  0 1 23 34  0 22 23 34  0 11 12 34  0 22 33 34  0 11 33 34  1 2 13 35  1 2 24 35  1 23 24 35  1 12 13 35  1 23 34 35  1 12 34 35  2 3 14 36  2 3 25 36  2 24 25 36  2 13 14 36  2 24 35 36  2 13 35 36  3 4 15 37  3 4 26 37  3 25 26 37  3 14 15 37  3 25 36 37  3 14 36 37  4 5 16 38  4 5 27 38  4 26 27 38  4 15 16 38  4 26 37 38  4 15 37 38  5 6 17 39  5 6 28 39  5 27 28 39  5 16 17 39  5 27 38 39  5 16 38 39  6 7 18 40  6 7 29 40  6 28 29 40  6 17 18 40  6 28 39 40  6 17 39 40  7 8 19 41  7 8 30 41  7 29 30 41  7 18 19 41  7 29 40 41  7 18 40 41  8 9 20 42  8 9 31 42  8 30 31 42  8 19 20 42  8 30 41 42  8 19 41 42  9 10 21 43  9 10 32 43  9 31 32 43  9 20 21 43  9 31 42 43  9 20 42 43  </DataArray>
<DataArray  type="UInt32"  Name="offsets"  format="ascii">4 8 12 16 20 24 28 32 36 40 44 48 52 56 60 64 68 72 76 80 84 88 92 96 100 104 108 112 116 120 124 128 132 136 140 144 148 152 156 160 164 168 172 176 180 184 188 192 196 200 204 208 212 216 220 224 228 232 236 240 </DataArray>
<DataArray  type="UInt8"  Name="types"  format="ascii">10 10 10 10 10 10 10 10 10 10 10 10 10 10 10 10 10 10 10 10 10 10 10 10 10 10 10 10 10 10 10 10 10 10 10 10 10 10 10 10 10 10 10 10 10 10 10 10 10 10 10 10 10 10 10 10 10 10 10 10 </DataArray>
</Cells>
<PointData  Scalars="f_5585"> 
<DataArray  type="Float64"  Name="f_5585"  format="ascii">1.3901309114142572e-05  2.8629919663586698e-03  7.9054509687190213e-03  1.4479263208960135e-02  2.2202908010473886e-02  3.0736408730865961e-02  3.9782429667219656e-02  4.9098645082653505e-02  5.8494036755041695e-02  6.7843004184606814e-02  7.7114719471631385e-02  -1.5130436982846651e-05  3.7128123131770960e-03  8.9223035433299083e-03  1.5287630335455197e-02  2.2755895435030125e-02  3.1036953852715772e-02  3.9861175416092805e-02  4.8995700680447785e-02  5.8256129589352376e-02  6.7502310028061077e-02  7.6756044775293089e-02  1.5275761571277810e-04  4.1430986493918975e-03  9.2170008114940260e-03  1.5637676739537358e-02  2.3169793908868964e-02  3.1513624484463640e-02  4.0390830474653902e-02  4.9568017387044097e-02  5.8858108865367818e-02  6.8148989973188037e-02  7.7231826473588339e-02  9.8837079634041876e-05  2.4866631181099594e-03  6.9355100033435934e-03  1.3197816283142521e-02  2.0756954847805670e-02  2.9200455330123512e-02  3.8213276506678107e-02  4.7538788816625328e-02  5.6978096524461876e-02  6.6388356678319022e-02  7.5649256280810415e-02  </DataArray> 
</PointData> 
</Piece>
</UnstructuredGrid>
</VTKFile>