<?xml version="1.0"?>
<VTKFile type="UnstructuredGrid"  version="0.1"  >
<UnstructuredGrid>
<Piece  NumberOfPoints="44" NumberOfCells="60">
<Points>
<DataArray  type="Float64"  NumberOfComponents="3"  format="ascii">0 0 0  0.1 0 0  0.2 0 0  0.3 0 0  0.4 0 0  0.5 0 0  0.6 0 0  0.7 0 0  0.8 0 0  0.9 0 0  1 0 0  0 0.2 0  0.1 0.2 0  0.2 0.2 0  0.3 0.2 0  0.4 0.2 0  0.5 0.2 0  0.6 0.2 0  0.7 0.2 0  0.8 0.2 0  0.9 0.2 0  1 0.2 0  0 0 0.2  0.1 0 0.2  0.2 0 0.2  0.3 0 0.2  0.4 0 0.2  0.5 0 0.2  0.6 0 0.2  0.7 0 0.2  0.8 0 0.2  0.9 0 0.2  1 0 0.2  0 0.2 0.2  0.1 0.2 0.2  0.2 0.2 0.2  0.3 0.2 0.2  0.4 0.2 0.2  0.5 0.2 0.2  0.6 0.2 0.2  0.7 0.2 0.2  0.8 0.2 0.2  0.9 0.2 0.2  1 0.2 0.2  </DataArray>
</Points>
<Cells>
<DataArray  type="UInt32"  Name="connectivity"  format="ascii">0 1 12 34  0 1 23 34  0 22 23 34  0 11 12 34  0 22 33 34  0 11 33 34  1 2 13 35  1 2 24 35  1 23 24 35  1 12 13 35  1 23 34 35  1 12 34 35  2 3 14 36  2 3 25 36  2 24 25 36  2 13 14 36  2 24 35 36  2 13 35 36  3 4 15 37  3 4 26 37  3 25 26 37  3 14 15 37  3 25 36 37  3 14 36 37  4 5 16 38  4 5 27 38  4 26 27 38  4 15 16 38  4 26 37 38  4 15 37 38  5 6 17 39  5 6 28 39  5 27 28 39  5 16 17 39  5 27 38 39  5 16 38 39  6 7 18 40  6 7 29 40  6 28 29 40  6 17 18 40  6 28 39 40  6 17 39 40  7 8 19 41  7 8 30 41  7 29 30 41  7 18 19 41  7 29 40 41  7 18 40 41  8 9 20 42  8 9 31 42  8 30 31 42  8 19 20 42  8 30 41 42  8 19 41 42  9 10 21 43  9 10 32 43  9 31 32 43  9 20 21 43  9 31 42 43  9 20 42 43  </DataArray>
<DataArray  type="UInt32"  Name="offsets"  format="ascii">4 8 12 16 20 24 28 32 36 40 44 48 52 56 60 64 68 72 76 80 84 88 92 96 100 104 108 112 116 120 124 128 132 136 140 144 148 152 156 160 164 168 172 176 180 184 188 192 196 200 204 208 212 216 220 224 228 232 236 240 </DataArray>
<DataArray  type="UInt8"  Name="types"  format="ascii">10 10 10 10 10 10 10 10 10 10 10 10 10 10 10 10 10 10 10 10 10 10 10 10 10 10 10 10 10 10 10 10 10 10 10 10 10 10 10 10 10 10 10 10 10 10 10 10 10 10 10 10 10 10 10 10 10 10 10 10 </DataArray>
</Cells>
<PointData  Scalars="f_15055"> 
<DataArray  type="Float64"  Name="f_15055"  format="ascii">8.7022195054528902e-03  1.7922329709405274e+00  4.9488123064181124e+00  9.0640187688090510e+00  1.3899020414556654e+01  1.9240991865522076e+01  2.4903800971679480e+01  3.0735751821741125e+01  3.6617267008656100e+01  4.2469720619563859e+01  4.8273814389241231e+01  -9.4716535512616943e-03  2.3242205080488607e+00  5.5853620181245285e+00  9.5700565899949428e+00  1.4245190542328862e+01  1.9429133111800077e+01  2.4953095810474132e+01  3.0671308625960311e+01  3.6468337122934585e+01  4.2256446077566146e+01  4.8049284029333464e+01  9.5626267436198287e-02  2.5935797545193289e+00  5.7698425079952633e+00  9.7891856389503840e+00  1.4504290986951990e+01  1.9727528927274232e+01  2.5284659877133375e+01  3.1029578884289585e+01  3.6845176149720224e+01  4.2661267723215694e+01  4.8347123372466307e+01  6.1872011850909979e-02  1.5566511119368365e+00  4.3416292620930896e+00  8.2618329932472090e+00  1.2993853734726354e+01  1.8279485036657331e+01  2.3921511093180509e+01  2.9759281799207486e+01  3.5668288424313140e+01  4.1559111280627739e+01  4.7356434431787306e+01  </DataArray> 
</PointData> 
</Piece>
</UnstructuredGrid>
</VTKFile>