<?xml version="1.0"?>
<VTKFile type="UnstructuredGrid"  version="0.1"  >
<UnstructuredGrid>
<Piece  NumberOfPoints="44" NumberOfCells="60">
<Points>
<DataArray  type="Float64"  NumberOfComponents="3"  format="ascii">0 0 0  0.1 0 0  0.2 0 0  0.3 0 0  0.4 0 0  0.5 0 0  0.6 0 0  0.7 0 0  0.8 0 0  0.9 0 0  1 0 0  0 0.2 0  0.1 0.2 0  0.2 0.2 0  0.3 0.2 0  0.4 0.2 0  0.5 0.2 0  0.6 0.2 0  0.7 0.2 0  0.8 0.2 0  0.9 0.2 0  1 0.2 0  0 0 0.2  0.1 0 0.2  0.2 0 0.2  0.3 0 0.2  0.4 0 0.2  0.5 0 0.2  0.6 0 0.2  0.7 0 0.2  0.8 0 0.2  0.9 0 0.2  1 0 0.2  0 0.2 0.2  0.1 0.2 0.2  0.2 0.2 0.2  0.3 0.2 0.2  0.4 0.2 0.2  0.5 0.2 0.2  0.6 0.2 0.2  0.7 0.2 0.2  0.8 0.2 0.2  0.9 0.2 0.2  1 0.2 0.2  </DataArray>
</Points>
<Cells>
<DataArray  type="UInt32"  Name="connectivity"  format="ascii">0 1 12 34  0 1 23 34  0 22 23 34  0 11 12 34  0 22 33 34  0 11 33 34  1 2 13 35  1 2 24 35  1 23 24 35  1 12 13 35  1 23 34 35  1 12 34 35  2 3 14 36  2 3 25 36  2 24 25 36  2 13 14 36  2 24 35 36  2 13 35 36  3 4 15 37  3 4 26 37  3 25 26 37  3 14 15 37  3 25 36 37  3 14 36 37  4 5 16 38  4 5 27 38  4 26 27 38  4 15 16 38  4 26 37 38  4 15 37 38  5 6 17 39  5 6 28 39  5 27 28 39  5 16 17 39  5 27 38 39  5 16 38 39  6 7 18 40  6 7 29 40  6 28 29 40  6 17 18 40  6 28 39 40  6 17 39 40  7 8 19 41  7 8 30 41  7 29 30 41  7 18 19 41  7 29 40 41  7 18 40 41  8 9 20 42  8 9 31 42  8 30 31 42  8 19 20 42  8 30 41 42  8 19 41 42  9 10 21 43  9 10 32 43  9 31 32 43  9 20 21 43  9 31 42 43  9 20 42 43  </DataArray>
<DataArray  type="UInt32"  Name="offsets"  format="ascii">4 8 12 16 20 24 28 32 36 40 44 48 52 56 60 64 68 72 76 80 84 88 92 96 100 104 108 112 116 120 124 128 132 136 140 144 148 152 156 160 164 168 172 176 180 184 188 192 196 200 204 208 212 216 220 224 228 232 236 240 </DataArray>
<DataArray  type="UInt8"  Name="types"  format="ascii">10 10 10 10 10 10 10 10 10 10 10 10 10 10 10 10 10 10 10 10 10 10 10 10 10 10 10 10 10 10 10 10 10 10 10 10 10 10 10 10 10 10 10 10 10 10 10 10 10 10 10 10 10 10 10 10 10 10 10 10 </DataArray>
</Cells>
<PointData  Scalars="f_76634"> 
<DataArray  type="Float64"  Name="f_76634"  format="ascii">1.8402969308843932e+01  1.4232665029311722e+01  1.1807845008960863e+01  1.0272672860078583e+01  9.7607564424055600e+00  1.0423437629569731e+01  1.2056193219996700e+01  1.4290617368967716e+01  1.6936820867484780e+01  1.8895761067011357e+01  2.0255218732001879e+01  2.8011962787787326e+01  2.2705302882208905e+01  1.8452470672163322e+01  1.4733832178970333e+01  1.1701117538114037e+01  9.8645091112285463e+00  9.7618334018903781e+00  1.1412789094613208e+01  1.4174952611676062e+01  1.6723962574831756e+01  1.9927078801644132e+01  1.9945533974215913e+01  1.6732343863134162e+01  1.4174110950161792e+01  1.1407106709396496e+01  9.7580013975566082e+00  9.8666092015897799e+00  1.1707662846572731e+01  1.4740428003381174e+01  1.8454394910042623e+01  2.2700550327409275e+01  2.7996832869838762e+01  2.0226896132980173e+01  1.8890841281571806e+01  1.6937558655567663e+01  1.4290987007675040e+01  1.2056048843939585e+01  1.0422272875509934e+01  9.7598779185747535e+00  1.0273871859983004e+01  1.1813075243401899e+01  1.4244908773352821e+01  1.8408014871866630e+01  </DataArray> 
</PointData> 
</Piece>
</UnstructuredGrid>
</VTKFile>