<?xml version="1.0"?>
<VTKFile type="UnstructuredGrid"  version="0.1"  >
<UnstructuredGrid>
<Piece  NumberOfPoints="44" NumberOfCells="60">
<Points>
<DataArray  type="Float64"  NumberOfComponents="3"  format="ascii">0 0 0  0.1 0 0  0.2 0 0  0.3 0 0  0.4 0 0  0.5 0 0  0.6 0 0  0.7 0 0  0.8 0 0  0.9 0 0  1 0 0  0 0.2 0  0.1 0.2 0  0.2 0.2 0  0.3 0.2 0  0.4 0.2 0  0.5 0.2 0  0.6 0.2 0  0.7 0.2 0  0.8 0.2 0  0.9 0.2 0  1 0.2 0  0 0 0.2  0.1 0 0.2  0.2 0 0.2  0.3 0 0.2  0.4 0 0.2  0.5 0 0.2  0.6 0 0.2  0.7 0 0.2  0.8 0 0.2  0.9 0 0.2  1 0 0.2  0 0.2 0.2  0.1 0.2 0.2  0.2 0.2 0.2  0.3 0.2 0.2  0.4 0.2 0.2  0.5 0.2 0.2  0.6 0.2 0.2  0.7 0.2 0.2  0.8 0.2 0.2  0.9 0.2 0.2  1 0.2 0.2  </DataArray>
</Points>
<Cells>
<DataArray  type="UInt32"  Name="connectivity"  format="ascii">0 1 12 34  0 1 23 34  0 22 23 34  0 11 12 34  0 22 33 34  0 11 33 34  1 2 13 35  1 2 24 35  1 23 24 35  1 12 13 35  1 23 34 35  1 12 34 35  2 3 14 36  2 3 25 36  2 24 25 36  2 13 14 36  2 24 35 36  2 13 35 36  3 4 15 37  3 4 26 37  3 25 26 37  3 14 15 37  3 25 36 37  3 14 36 37  4 5 16 38  4 5 27 38  4 26 27 38  4 15 16 38  4 26 37 38  4 15 37 38  5 6 17 39  5 6 28 39  5 27 28 39  5 16 17 39  5 27 38 39  5 16 38 39  6 7 18 40  6 7 29 40  6 28 29 40  6 17 18 40  6 28 39 40  6 17 39 40  7 8 19 41  7 8 30 41  7 29 30 41  7 18 19 41  7 29 40 41  7 18 40 41  8 9 20 42  8 9 31 42  8 30 31 42  8 19 20 42  8 30 41 42  8 19 41 42  9 10 21 43  9 10 32 43  9 31 32 43  9 20 21 43  9 31 42 43  9 20 42 43  </DataArray>
<DataArray  type="UInt32"  Name="offsets"  format="ascii">4 8 12 16 20 24 28 32 36 40 44 48 52 56 60 64 68 72 76 80 84 88 92 96 100 104 108 112 116 120 124 128 132 136 140 144 148 152 156 160 164 168 172 176 180 184 188 192 196 200 204 208 212 216 220 224 228 232 236 240 </DataArray>
<DataArray  type="UInt8"  Name="types"  format="ascii">10 10 10 10 10 10 10 10 10 10 10 10 10 10 10 10 10 10 10 10 10 10 10 10 10 10 10 10 10 10 10 10 10 10 10 10 10 10 10 10 10 10 10 10 10 10 10 10 10 10 10 10 10 10 10 10 10 10 10 10 </DataArray>
</Cells>
<PointData  Scalars="f_5570"> 
<DataArray  type="Float64"  Name="f_5570"  format="ascii">5.0630575980360873e-02  3.2035868880852789e-02  2.6090960038016253e-02  2.1170856349607838e-02  1.6760670321055205e-02  1.3062329525893496e-02  9.9184225985626574e-03  7.1758101209813234e-03  4.6751866551143374e-03  1.7659705655699754e-03  5.2168767218688640e-04  7.4202922179224709e-02  6.0869738908059030e-02  5.1775783617281246e-02  4.0329325264436125e-02  3.0312404884856793e-02  2.1879452954140191e-02  1.4941784086066598e-02  9.4804118455670151e-03  5.3225451572176206e-03  2.2862484401951011e-03  4.3731795716667513e-04  9.1604198437993958e-02  7.1898827171537880e-02  5.8762376812756291e-02  4.5871888362974358e-02  3.4846024770877712e-02  2.5630169409295061e-02  1.7979586705942140e-02  1.1818325706155869e-02  6.9852382464188649e-03  3.2699334985307588e-03  9.3719763364231924e-04  3.5631802495698028e-02  4.7212807904878099e-02  4.3081031988717107e-02  3.4693941326682201e-02  2.7966810870624883e-02  2.1810234573293279e-02  1.6314823462076196e-02  1.1495671263127213e-02  7.3069170060613246e-03  3.7955647886290236e-03  9.1206432575480245e-04  </DataArray> 
</PointData> 
</Piece>
</UnstructuredGrid>
</VTKFile>