<?xml version="1.0"?>
<VTKFile type="UnstructuredGrid"  version="0.1"  >
<UnstructuredGrid>
<Piece  NumberOfPoints="44" NumberOfCells="60">
<Points>
<DataArray  type="Float64"  NumberOfComponents="3"  format="ascii">0 0 0  0.1 0 0  0.2 0 0  0.3 0 0  0.4 0 0  0.5 0 0  0.6 0 0  0.7 0 0  0.8 0 0  0.9 0 0  1 0 0  0 0.2 0  0.1 0.2 0  0.2 0.2 0  0.3 0.2 0  0.4 0.2 0  0.5 0.2 0  0.6 0.2 0  0.7 0.2 0  0.8 0.2 0  0.9 0.2 0  1 0.2 0  0 0 0.2  0.1 0 0.2  0.2 0 0.2  0.3 0 0.2  0.4 0 0.2  0.5 0 0.2  0.6 0 0.2  0.7 0 0.2  0.8 0 0.2  0.9 0 0.2  1 0 0.2  0 0.2 0.2  0.1 0.2 0.2  0.2 0.2 0.2  0.3 0.2 0.2  0.4 0.2 0.2  0.5 0.2 0.2  0.6 0.2 0.2  0.7 0.2 0.2  0.8 0.2 0.2  0.9 0.2 0.2  1 0.2 0.2  </DataArray>
</Points>
<Cells>
<DataArray  type="UInt32"  Name="connectivity"  format="ascii">0 1 12 34  0 1 23 34  0 22 23 34  0 11 12 34  0 22 33 34  0 11 33 34  1 2 13 35  1 2 24 35  1 23 24 35  1 12 13 35  1 23 34 35  1 12 34 35  2 3 14 36  2 3 25 36  2 24 25 36  2 13 14 36  2 24 35 36  2 13 35 36  3 4 15 37  3 4 26 37  3 25 26 37  3 14 15 37  3 25 36 37  3 14 36 37  4 5 16 38  4 5 27 38  4 26 27 38  4 15 16 38  4 26 37 38  4 15 37 38  5 6 17 39  5 6 28 39  5 27 28 39  5 16 17 39  5 27 38 39  5 16 38 39  6 7 18 40  6 7 29 40  6 28 29 40  6 17 18 40  6 28 39 40  6 17 39 40  7 8 19 41  7 8 30 41  7 29 30 41  7 18 19 41  7 29 40 41  7 18 40 41  8 9 20 42  8 9 31 42  8 30 31 42  8 19 20 42  8 30 41 42  8 19 41 42  9 10 21 43  9 10 32 43  9 31 32 43  9 20 21 43  9 31 42 43  9 20 42 43  </DataArray>
<DataArray  type="UInt32"  Name="offsets"  format="ascii">4 8 12 16 20 24 28 32 36 40 44 48 52 56 60 64 68 72 76 80 84 88 92 96 100 104 108 112 116 120 124 128 132 136 140 144 148 152 156 160 164 168 172 176 180 184 188 192 196 200 204 208 212 216 220 224 228 232 236 240 </DataArray>
<DataArray  type="UInt8"  Name="types"  format="ascii">10 10 10 10 10 10 10 10 10 10 10 10 10 10 10 10 10 10 10 10 10 10 10 10 10 10 10 10 10 10 10 10 10 10 10 10 10 10 10 10 10 10 10 10 10 10 10 10 10 10 10 10 10 10 10 10 10 10 10 10 </DataArray>
</Cells>
<PointData  Scalars="f_15040"> 
<DataArray  type="Float64"  Name="f_15040"  format="ascii">3.1694740563705921e+01  2.0054453919413842e+01  1.6332940983798139e+01  1.3252956074854586e+01  1.0492179620980624e+01  8.1770182832093674e+00  6.2089325467002450e+00  4.4920571357341945e+00  2.9266668461014973e+00  1.1054975740467694e+00  3.2657648278933149e-01  4.6451029284194668e+01  3.8104456556444966e+01  3.2411640544417992e+01  2.5246157615537086e+01  1.8975565457920290e+01  1.3696537549291918e+01  9.3535568378777025e+00  5.9347378153249064e+00  3.3319132684179595e+00  1.4311915235620378e+00  2.7376104118668376e-01  5.7344228222184221e+01  4.5008665809382755e+01  3.6785247884785406e+01  2.8715802115222012e+01  2.1813611506569451e+01  1.6044486050218925e+01  1.1255221277919670e+01  7.3982718920535371e+00  4.3727591422581193e+00  2.0469783700800455e+00  5.8668571865997077e-01  2.2305508362306991e+01  2.9555217748453657e+01  2.6968726024936892e+01  2.1718407270503082e+01  1.7507223605011191e+01  1.3653206842881692e+01  1.0213079487259678e+01  7.1962902107177138e+00  4.5741300457941927e+00  2.3760235576817097e+00  5.7095226792244080e-01  </DataArray> 
</PointData> 
</Piece>
</UnstructuredGrid>
</VTKFile>