<?xml version="1.0"?>
<VTKFile type="UnstructuredGrid"  version="0.1"  >
<UnstructuredGrid>
<Piece  NumberOfPoints="102" NumberOfCells="100">
<Points>
<DataArray  type="Float64"  NumberOfComponents="3"  format="ascii">0 0 0  1 0 0  0 0.02 0  1 0.02 0  0 0.04 0  1 0.04 0  0 0.06 0  1 0.06 0  0 0.08 0  1 0.08 0  0 0.1 0  1 0.1 0  0 0.12 0  1 0.12 0  0 0.14 0  1 0.14 0  0 0.16 0  1 0.16 0  0 0.18 0  1 0.18 0  0 0.2 0  1 0.2 0  0 0.22 0  1 0.22 0  0 0.24 0  1 0.24 0  0 0.26 0  1 0.26 0  0 0.28 0  1 0.28 0  0 0.3 0  1 0.3 0  0 0.32 0  1 0.32 0  0 0.34 0  1 0.34 0  0 0.36 0  1 0.36 0  0 0.38 0  1 0.38 0  0 0.4 0  1 0.4 0  0 0.42 0  1 0.42 0  0 0.44 0  1 0.44 0  0 0.46 0  1 0.46 0  0 0.48 0  1 0.48 0  0 0.5 0  1 0.5 0  0 0.52 0  1 0.52 0  0 0.54 0  1 0.54 0  0 0.5600000000000001 0  1 0.5600000000000001 0  0 0.58 0  1 0.58 0  0 0.6 0  1 0.6 0  0 0.62 0  1 0.62 0  0 0.64 0  1 0.64 0  0 0.66 0  1 0.66 0  0 0.68 0  1 0.68 0  0 0.7 0  1 0.7 0  0 0.72 0  1 0.72 0  0 0.74 0  1 0.74 0  0 0.76 0  1 0.76 0  0 0.78 0  1 0.78 0  0 0.8 0  1 0.8 0  0 0.82 0  1 0.82 0  0 0.84 0  1 0.84 0  0 0.86 0  1 0.86 0  0 0.88 0  1 0.88 0  0 0.9 0  1 0.9 0  0 0.92 0  1 0.92 0  0 0.9399999999999999 0  1 0.9399999999999999 0  0 0.96 0  1 0.96 0  0 0.98 0  1 0.98 0  0 1 0  1 1 0  </DataArray>
</Points>
<Cells>
<DataArray  type="UInt32"  Name="connectivity"  format="ascii">0 1 3  0 2 3  2 3 5  2 4 5  4 5 7  4 6 7  6 7 9  6 8 9  8 9 11  8 10 11  10 11 13  10 12 13  12 13 15  12 14 15  14 15 17  14 16 17  16 17 19  16 18 19  18 19 21  18 20 21  20 21 23  20 22 23  22 23 25  22 24 25  24 25 27  24 26 27  26 27 29  26 28 29  28 29 31  28 30 31  30 31 33  30 32 33  32 33 35  32 34 35  34 35 37  34 36 37  36 37 39  36 38 39  38 39 41  38 40 41  40 41 43  40 42 43  42 43 45  42 44 45  44 45 47  44 46 47  46 47 49  46 48 49  48 49 51  48 50 51  50 51 53  50 52 53  52 53 55  52 54 55  54 55 57  54 56 57  56 57 59  56 58 59  58 59 61  58 60 61  60 61 63  60 62 63  62 63 65  62 64 65  64 65 67  64 66 67  66 67 69  66 68 69  68 69 71  68 70 71  70 71 73  70 72 73  72 73 75  72 74 75  74 75 77  74 76 77  76 77 79  76 78 79  78 79 81  78 80 81  80 81 83  80 82 83  82 83 85  82 84 85  84 85 87  84 86 87  86 87 89  86 88 89  88 89 91  88 90 91  90 91 93  90 92 93  92 93 95  92 94 95  94 95 97  94 96 97  96 97 99  96 98 99  98 99 101  98 100 101  </DataArray>
<DataArray  type="UInt32"  Name="offsets"  format="ascii">3 6 9 12 15 18 21 24 27 30 33 36 39 42 45 48 51 54 57 60 63 66 69 72 75 78 81 84 87 90 93 96 99 102 105 108 111 114 117 120 123 126 129 132 135 138 141 144 147 150 153 156 159 162 165 168 171 174 177 180 183 186 189 192 195 198 201 204 207 210 213 216 219 222 225 228 231 234 237 240 243 246 249 252 255 258 261 264 267 270 273 276 279 282 285 288 291 294 297 300 </DataArray>
<DataArray  type="UInt8"  Name="types"  format="ascii">5 5 5 5 5 5 5 5 5 5 5 5 5 5 5 5 5 5 5 5 5 5 5 5 5 5 5 5 5 5 5 5 5 5 5 5 5 5 5 5 5 5 5 5 5 5 5 5 5 5 5 5 5 5 5 5 5 5 5 5 5 5 5 5 5 5 5 5 5 5 5 5 5 5 5 5 5 5 5 5 5 5 5 5 5 5 5 5 5 5 5 5 5 5 5 5 5 5 5 5 </DataArray>
</Cells>
<PointData  Scalars="f_7"> 
<DataArray  type="Float64"  Name="f_7"  format="ascii">1.0000000000000000e+00  2.0000000000000000e+00  1.0000000000000000e+00  2.0000000000000000e+00  1.0000000000000000e+00  2.0000000000000000e+00  1.0000000000000000e+00  2.0000000000000000e+00  1.0000000000000000e+00  2.0000000000000000e+00  1.0000000000000000e+00  2.0000000000000000e+00  1.0000000000000000e+00  2.0000000000000000e+00  1.0000000000000000e+00  2.0000000000000000e+00  1.0000000000000000e+00  2.0000000000000000e+00  1.0000000000000000e+00  2.0000000000000000e+00  1.0000000000000000e+00  2.0000000000000000e+00  1.0000000000000000e+00  2.0000000000000000e+00  1.0000000000000000e+00  2.0000000000000000e+00  1.0000000000000000e+00  2.0000000000000000e+00  1.0000000000000000e+00  2.0000000000000000e+00  1.0000000000000000e+00  2.0000000000000000e+00  1.0000000000000000e+00  2.0000000000000000e+00  1.0000000000000000e+00  2.0000000000000000e+00  1.0000000000000000e+00  2.0000000000000000e+00  1.0000000000000000e+00  2.0000000000000000e+00  1.0000000000000000e+00  2.0000000000000000e+00  1.0000000000000000e+00  2.0000000000000000e+00  1.0000000000000000e+00  2.0000000000000000e+00  1.0000000000000000e+00  2.0000000000000000e+00  1.0000000000000000e+00  2.0000000000000000e+00  1.0000000000000000e+00  2.0000000000000000e+00  1.0000000000000000e+00  2.0000000000000000e+00  1.0000000000000000e+00  2.0000000000000000e+00  1.0000000000000000e+00  2.0000000000000000e+00  1.0000000000000000e+00  2.0000000000000000e+00  1.0000000000000000e+00  2.0000000000000000e+00  1.0000000000000000e+00  2.0000000000000000e+00  1.0000000000000000e+00  2.0000000000000000e+00  1.0000000000000000e+00  2.0000000000000000e+00  1.0000000000000000e+00  2.0000000000000000e+00  1.0000000000000000e+00  2.0000000000000000e+00  1.0000000000000000e+00  2.0000000000000000e+00  1.0000000000000000e+00  2.0000000000000000e+00  1.0000000000000000e+00  2.0000000000000000e+00  1.0000000000000000e+00  2.0000000000000000e+00  1.0000000000000000e+00  2.0000000000000000e+00  1.0000000000000000e+00  2.0000000000000000e+00  1.0000000000000000e+00  2.0000000000000000e+00  1.0000000000000000e+00  2.0000000000000000e+00  1.0000000000000000e+00  2.0000000000000000e+00  1.0000000000000000e+00  2.0000000000000000e+00  1.0000000000000000e+00  2.0000000000000000e+00  1.0000000000000000e+00  2.0000000000000000e+00  1.0000000000000000e+00  2.0000000000000000e+00  1.0000000000000000e+00  2.0000000000000000e+00  1.0000000000000000e+00  2.0000000000000000e+00  </DataArray> 
</PointData> 
</Piece>
</UnstructuredGrid>
</VTKFile>